<?xml version="1.0" encoding="UTF-8"?>

<!-- generated on 2026-07-21T03:40:29.298254+00:00 by Eclipse SUMO sumo 1.27.1
<sumoConfiguration xmlns:xsi="http://www.w3.org/2001/XMLSchema-instance" xsi:noNamespaceSchemaLocation="http://sumo.dlr.de/xsd/sumoConfiguration.xsd">

    <input>
        <net-file value="cenarios/almirante/belem.net.xml"/>
        <route-files value="cenarios/almirante/rotas.rou.xml"/>
    </input>

    <output>
        <tripinfo-output value="/home/ademir/felipe/belem-rl/outputs/tripinfo_dqn_sem_optuna_velocity_time.xml"/>
        <tripinfo-output.write-unfinished value="true"/>
    </output>

    <processing>
        <time-to-teleport value="-1"/>
        <waiting-time-memory value="1000"/>
        <max-depart-delay value="-1"/>
    </processing>

    <report>
        <no-warnings value="true"/>
    </report>

    <traci_server>
        <remote-port value="39059"/>
    </traci_server>

    <random_number>
        <random value="true"/>
    </random_number>

</sumoConfiguration>
-->

<tripinfos xmlns:xsi="http://www.w3.org/2001/XMLSchema-instance" xsi:noNamespaceSchemaLocation="http://sumo.dlr.de/xsd/tripinfo_file.xsd">
    <tripinfo id="11" depart="10.00" departLane="-1098103533_0" departPos="5.10" departSpeed="13.61" departDelay="0.65" arrival="30.00" arrivalLane="-993713961#1_0" arrivalPos="73.80" arrivalSpeed="12.98" duration="20.00" routeLength="184.66" waitingTime="0.00" waitingCount="0" stopTime="0.00" timeLoss="3.35" rerouteNo="0" devices="tripinfo_11" vType="DEFAULT_VEHTYPE" speedFactor="0.98" vaporized=""/>
    <tripinfo id="22" depart="19.00" departLane="143173609#0_2" departPos="5.10" departSpeed="11.11" departDelay="0.30" arrival="39.00" arrivalLane="974590281_0" arrivalPos="64.66" arrivalSpeed="14.20" duration="20.00" routeLength="220.59" waitingTime="0.00" waitingCount="0" stopTime="0.00" timeLoss="1.70" rerouteNo="0" devices="tripinfo_22" vType="DEFAULT_VEHTYPE" speedFactor="1.07" vaporized=""/>
    <tripinfo id="14" depart="12.00" departLane="145341872_1" departPos="5.10" departSpeed="16.67" departDelay="0.10" arrival="42.00" arrivalLane="145341879#2_1" arrivalPos="142.21" arrivalSpeed="15.82" duration="30.00" routeLength="477.58" waitingTime="0.00" waitingCount="0" stopTime="0.00" timeLoss="1.02" rerouteNo="0" devices="tripinfo_14" vType="DEFAULT_VEHTYPE" speedFactor="1.01" vaporized=""/>
    <tripinfo id="57" depart="49.00" departLane="542000903#4_0" departPos="5.10" departSpeed="11.11" departDelay="0.55" arrival="58.00" arrivalLane="-993713961#1_0" arrivalPos="73.80" arrivalSpeed="16.64" duration="9.00" routeLength="95.86" waitingTime="0.00" waitingCount="0" stopTime="0.00" timeLoss="2.20" rerouteNo="0" devices="tripinfo_57" vType="DEFAULT_VEHTYPE" speedFactor="1.20" vaporized=""/>
    <tripinfo id="13" depart="12.00" departLane="384994567#1_0" departPos="5.10" departSpeed="21.14" departDelay="0.95" arrival="64.00" arrivalLane="974590281_0" arrivalPos="64.66" arrivalSpeed="12.75" duration="52.00" routeLength="626.09" waitingTime="0.00" waitingCount="0" stopTime="0.00" timeLoss="5.61" rerouteNo="0" devices="tripinfo_13" vType="DEFAULT_VEHTYPE" speedFactor="0.95" vaporized=""/>
    <tripinfo id="31" depart="27.00" departLane="407148734#0_0" departPos="5.10" departSpeed="9.44" departDelay="0.65" arrival="68.00" arrivalLane="143173621_0" arrivalPos="174.03" arrivalSpeed="22.70" duration="41.00" routeLength="671.02" waitingTime="0.00" waitingCount="0" stopTime="0.00" timeLoss="4.59" rerouteNo="0" devices="tripinfo_31" vType="DEFAULT_VEHTYPE" speedFactor="1.04" vaporized=""/>
    <tripinfo id="19" depart="17.00" departLane="-127327262#0_0" departPos="5.10" departSpeed="5.56" departDelay="0.85" arrival="79.00" arrivalLane="143173598#0_0" arrivalPos="488.33" arrivalSpeed="15.94" duration="62.00" routeLength="877.81" waitingTime="0.00" waitingCount="0" stopTime="0.00" timeLoss="8.48" rerouteNo="0" devices="tripinfo_19" vType="DEFAULT_VEHTYPE" speedFactor="1.16" vaporized=""/>
    <tripinfo id="56" depart="48.00" departLane="651807443#0_0" departPos="5.10" departSpeed="15.61" departDelay="0.40" arrival="81.00" arrivalLane="974590281_0" arrivalPos="64.66" arrivalSpeed="14.98" duration="33.00" routeLength="377.43" waitingTime="0.00" waitingCount="0" stopTime="0.00" timeLoss="4.82" rerouteNo="0" devices="tripinfo_56" vType="DEFAULT_VEHTYPE" speedFactor="1.12" vaporized=""/>
    <tripinfo id="36" depart="31.00" departLane="-127327263_0" departPos="5.10" departSpeed="8.33" departDelay="0.40" arrival="82.00" arrivalLane="384994569#3_1" arrivalPos="0.20" arrivalSpeed="14.24" duration="51.00" routeLength="587.50" waitingTime="1.00" waitingCount="1" stopTime="0.00" timeLoss="9.13" rerouteNo="0" devices="tripinfo_36" vType="DEFAULT_VEHTYPE" speedFactor="1.06" vaporized=""/>
    <tripinfo id="55" depart="47.00" departLane="144165458#2_0" departPos="5.10" departSpeed="14.14" departDelay="0.25" arrival="84.00" arrivalLane="-40566492_0" arrivalPos="154.32" arrivalSpeed="11.13" duration="37.00" routeLength="362.34" waitingTime="0.00" waitingCount="0" stopTime="0.00" timeLoss="4.35" rerouteNo="0" devices="tripinfo_55" vType="DEFAULT_VEHTYPE" speedFactor="0.85" vaporized=""/>
    <tripinfo id="54" depart="46.00" departLane="651807443#0_0" departPos="5.10" departSpeed="13.89" departDelay="0.10" arrival="88.00" arrivalLane="607763868#0_0" arrivalPos="103.61" arrivalSpeed="19.68" duration="42.00" routeLength="550.40" waitingTime="0.00" waitingCount="0" stopTime="0.00" timeLoss="9.09" rerouteNo="0" devices="tripinfo_54" vType="DEFAULT_VEHTYPE" speedFactor="1.20" vaporized=""/>
    <tripinfo id="29" depart="25.00" departLane="-974590281_0" departPos="5.10" departSpeed="13.89" departDelay="0.35" arrival="89.00" arrivalLane="974590281_0" arrivalPos="64.66" arrivalSpeed="14.21" duration="64.00" routeLength="625.79" waitingTime="2.00" waitingCount="1" stopTime="0.00" timeLoss="17.95" rerouteNo="0" devices="tripinfo_29" vType="DEFAULT_VEHTYPE" speedFactor="1.06" vaporized=""/>
    <tripinfo id="32" depart="28.00" departLane="143173609#0_0" departPos="5.10" departSpeed="11.11" departDelay="0.80" arrival="95.00" arrivalLane="127327263_0" arrivalPos="149.76" arrivalSpeed="8.31" duration="67.00" routeLength="688.17" waitingTime="0.00" waitingCount="0" stopTime="0.00" timeLoss="11.18" rerouteNo="0" devices="tripinfo_32" vType="DEFAULT_VEHTYPE" speedFactor="1.09" vaporized=""/>
    <tripinfo id="20" depart="17.00" departLane="407148734#0_0" departPos="5.10" departSpeed="3.33" departDelay="0.00" arrival="96.00" arrivalLane="143173604#4_1" arrivalPos="109.04" arrivalSpeed="8.29" duration="79.00" routeLength="930.97" waitingTime="0.00" waitingCount="0" stopTime="0.00" timeLoss="8.94" rerouteNo="0" devices="tripinfo_20" vType="DEFAULT_VEHTYPE" speedFactor="0.90" vaporized=""/>
    <tripinfo id="103" depart="88.00" departLane="993713963#0_0" departPos="5.10" departSpeed="0.00" departDelay="0.45" arrival="96.00" arrivalLane="993713963#0_2" arrivalPos="40.04" arrivalSpeed="8.40" duration="8.00" routeLength="34.94" waitingTime="0.00" waitingCount="0" stopTime="0.00" timeLoss="4.68" rerouteNo="0" devices="tripinfo_103" vType="DEFAULT_VEHTYPE" speedFactor="0.97" vaporized=""/>
    <tripinfo id="94" depart="80.00" departLane="40566492_0" departPos="5.10" departSpeed="13.89" departDelay="0.10" arrival="100.00" arrivalLane="40566448#1_0" arrivalPos="74.78" arrivalSpeed="11.18" duration="20.00" routeLength="233.26" waitingTime="0.00" waitingCount="0" stopTime="0.00" timeLoss="2.19" rerouteNo="0" devices="tripinfo_94" vType="DEFAULT_VEHTYPE" speedFactor="1.06" vaporized=""/>
    <tripinfo id="51" depart="44.00" departLane="542000903#6_0" departPos="5.10" departSpeed="11.11" departDelay="0.65" arrival="105.00" arrivalLane="145341879#2_0" arrivalPos="142.21" arrivalSpeed="18.37" duration="61.00" routeLength="656.77" waitingTime="10.00" waitingCount="1" stopTime="0.00" timeLoss="17.77" rerouteNo="0" devices="tripinfo_51" vType="DEFAULT_VEHTYPE" speedFactor="1.17" vaporized=""/>
    <tripinfo id="15" depart="13.00" departLane="542000905#0_2" departPos="5.10" departSpeed="13.79" departDelay="0.25" arrival="111.00" arrivalLane="384994567#2_0" arrivalPos="181.58" arrivalSpeed="19.22" duration="98.00" routeLength="1276.85" waitingTime="0.00" waitingCount="0" stopTime="0.00" timeLoss="17.24" rerouteNo="0" devices="tripinfo_15" vType="DEFAULT_VEHTYPE" speedFactor="1.11" vaporized=""/>
    <tripinfo id="42" depart="36.00" departLane="143173609#0_0" departPos="5.10" departSpeed="11.49" departDelay="0.30" arrival="111.00" arrivalLane="384994573#2_0" arrivalPos="107.54" arrivalSpeed="23.12" duration="75.00" routeLength="1123.47" waitingTime="0.00" waitingCount="0" stopTime="0.00" timeLoss="9.40" rerouteNo="0" devices="tripinfo_42" vType="DEFAULT_VEHTYPE" speedFactor="1.05" vaporized=""/>
    <tripinfo id="105" depart="90.00" departLane="143173609#0_2" departPos="5.10" departSpeed="9.24" departDelay="0.75" arrival="116.00" arrivalLane="974590281_0" arrivalPos="64.66" arrivalSpeed="11.47" duration="26.00" routeLength="220.59" waitingTime="0.00" waitingCount="0" stopTime="0.00" timeLoss="2.25" rerouteNo="0" devices="tripinfo_105" vType="DEFAULT_VEHTYPE" speedFactor="0.83" vaporized=""/>
    <tripinfo id="45" depart="39.00" departLane="650637874#1_0" departPos="5.10" departSpeed="12.39" departDelay="0.75" arrival="122.00" arrivalLane="143173598#0_0" arrivalPos="488.33" arrivalSpeed="11.21" duration="83.00" routeLength="1025.90" waitingTime="0.00" waitingCount="0" stopTime="0.00" timeLoss="9.27" rerouteNo="0" devices="tripinfo_45" vType="DEFAULT_VEHTYPE" speedFactor="0.89" vaporized=""/>
    <tripinfo id="48" depart="41.00" departLane="144165458#2_2" departPos="5.10" departSpeed="16.67" departDelay="0.20" arrival="124.00" arrivalLane="384994573#0_1" arrivalPos="185.88" arrivalSpeed="25.98" duration="83.00" routeLength="931.32" waitingTime="6.00" waitingCount="2" stopTime="0.00" timeLoss="29.25" rerouteNo="0" devices="tripinfo_48" vType="DEFAULT_VEHTYPE" speedFactor="1.17" vaporized=""/>
    <tripinfo id="102" depart="87.00" departLane="144165458#2_0" departPos="5.10" departSpeed="14.29" departDelay="0.30" arrival="128.00" arrivalLane="40566493_0" arrivalPos="150.34" arrivalSpeed="10.65" duration="41.00" routeLength="368.17" waitingTime="2.00" waitingCount="1" stopTime="0.00" timeLoss="7.76" rerouteNo="0" devices="tripinfo_102" vType="DEFAULT_VEHTYPE" speedFactor="0.86" vaporized=""/>
    <tripinfo id="46" depart="40.00" departLane="265801394#0_0" departPos="5.10" departSpeed="22.22" departDelay="0.90" arrival="142.00" arrivalLane="1083921692_0" arrivalPos="74.91" arrivalSpeed="14.62" duration="102.00" routeLength="1189.81" waitingTime="7.00" waitingCount="2" stopTime="0.00" timeLoss="32.96" rerouteNo="0" devices="tripinfo_46" vType="DEFAULT_VEHTYPE" speedFactor="1.11" vaporized=""/>
    <tripinfo id="84" depart="72.00" departLane="145341872_0" departPos="5.10" departSpeed="15.96" departDelay="0.60" arrival="146.00" arrivalLane="992786137_0" arrivalPos="308.30" arrivalSpeed="10.01" duration="74.00" routeLength="624.92" waitingTime="15.00" waitingCount="1" stopTime="0.00" timeLoss="24.39" rerouteNo="0" devices="tripinfo_84" vType="DEFAULT_VEHTYPE" speedFactor="0.96" vaporized=""/>
    <tripinfo id="67" depart="57.00" departLane="-1098103533_0" departPos="5.10" departSpeed="13.21" departDelay="0.05" arrival="147.00" arrivalLane="384994569#4_0" arrivalPos="142.00" arrivalSpeed="13.16" duration="90.00" routeLength="837.91" waitingTime="1.00" waitingCount="1" stopTime="0.00" timeLoss="12.44" rerouteNo="0" devices="tripinfo_67" vType="DEFAULT_VEHTYPE" speedFactor="0.95" vaporized=""/>
    <tripinfo id="21" depart="18.00" departLane="145341872_0" departPos="5.10" departSpeed="10.17" departDelay="0.15" arrival="148.00" arrivalLane="1098103533_0" arrivalPos="80.62" arrivalSpeed="14.09" duration="130.00" routeLength="1412.79" waitingTime="0.00" waitingCount="0" stopTime="0.00" timeLoss="15.71" rerouteNo="0" devices="tripinfo_21" vType="DEFAULT_VEHTYPE" speedFactor="1.02" vaporized=""/>
    <tripinfo id="49" depart="42.00" departLane="40566492_0" departPos="5.10" departSpeed="13.89" departDelay="0.35" arrival="150.00" arrivalLane="1083921692_0" arrivalPos="74.91" arrivalSpeed="14.35" duration="108.00" routeLength="1118.02" waitingTime="4.00" waitingCount="3" stopTime="0.00" timeLoss="37.30" rerouteNo="0" devices="tripinfo_49" vType="DEFAULT_VEHTYPE" speedFactor="1.11" vaporized=""/>
    <tripinfo id="8" depart="7.00" departLane="542000905#0_2" departPos="5.10" departSpeed="13.89" departDelay="0.20" arrival="151.00" arrivalLane="-127327262#0_0" arrivalPos="28.15" arrivalSpeed="5.47" duration="144.00" routeLength="1419.73" waitingTime="3.00" waitingCount="1" stopTime="0.00" timeLoss="20.48" rerouteNo="0" devices="tripinfo_8" vType="DEFAULT_VEHTYPE" speedFactor="1.01" vaporized=""/>
    <tripinfo id="24" depart="21.00" departLane="-40566493_0" departPos="5.10" departSpeed="13.52" departDelay="0.60" arrival="157.00" arrivalLane="143173609#4_0" arrivalPos="148.55" arrivalSpeed="10.57" duration="136.00" routeLength="1272.16" waitingTime="3.00" waitingCount="1" stopTime="0.00" timeLoss="29.73" rerouteNo="0" devices="tripinfo_24" vType="DEFAULT_VEHTYPE" speedFactor="0.97" vaporized=""/>
    <tripinfo id="90" depart="77.00" departLane="-1098103533_0" departPos="5.10" departSpeed="11.07" departDelay="0.50" arrival="163.00" arrivalLane="164020090#0_0" arrivalPos="309.80" arrivalSpeed="8.56" duration="86.00" routeLength="686.88" waitingTime="0.00" waitingCount="0" stopTime="0.00" timeLoss="8.26" rerouteNo="0" devices="tripinfo_90" vType="DEFAULT_VEHTYPE" speedFactor="0.80" vaporized=""/>
    <tripinfo id="148" depart="126.00" departLane="407148734#0_0" departPos="5.10" departSpeed="11.11" departDelay="0.20" arrival="164.00" arrivalLane="143173621_0" arrivalPos="174.03" arrivalSpeed="25.37" duration="38.00" routeLength="671.02" waitingTime="0.00" waitingCount="0" stopTime="0.00" timeLoss="5.23" rerouteNo="0" devices="tripinfo_148" vType="DEFAULT_VEHTYPE" speedFactor="1.17" vaporized=""/>
    <tripinfo id="97" depart="83.00" departLane="40566492_0" departPos="5.10" departSpeed="13.95" departDelay="0.55" arrival="167.00" arrivalLane="384994567#2_1" arrivalPos="181.58" arrivalSpeed="21.97" duration="84.00" routeLength="806.73" waitingTime="0.00" waitingCount="0" stopTime="0.00" timeLoss="22.31" rerouteNo="0" devices="tripinfo_97" vType="DEFAULT_VEHTYPE" speedFactor="1.00" vaporized=""/>
    <tripinfo id="69" depart="59.00" departLane="-974590281_0" departPos="5.10" departSpeed="0.24" departDelay="0.35" arrival="169.00" arrivalLane="-993713961#1_0" arrivalPos="73.80" arrivalSpeed="14.30" duration="110.00" routeLength="1339.72" waitingTime="0.00" waitingCount="0" stopTime="0.00" timeLoss="23.31" rerouteNo="0" devices="tripinfo_69" vType="DEFAULT_VEHTYPE" speedFactor="1.12" vaporized=""/>
    <tripinfo id="28" depart="24.00" departLane="144165458#2_2" departPos="5.10" departSpeed="13.22" departDelay="0.20" arrival="170.00" arrivalLane="143173598#0_0" arrivalPos="488.33" arrivalSpeed="10.17" duration="146.00" routeLength="1366.77" waitingTime="0.00" waitingCount="0" stopTime="0.00" timeLoss="16.65" rerouteNo="0" devices="tripinfo_28" vType="DEFAULT_VEHTYPE" speedFactor="0.79" vaporized=""/>
    <tripinfo id="110" depart="94.00" departLane="542000905#0_2" departPos="5.10" departSpeed="13.26" departDelay="0.50" arrival="176.00" arrivalLane="143173598#0_0" arrivalPos="488.33" arrivalSpeed="12.37" duration="82.00" routeLength="980.66" waitingTime="0.00" waitingCount="0" stopTime="0.00" timeLoss="5.81" rerouteNo="0" devices="tripinfo_110" vType="DEFAULT_VEHTYPE" speedFactor="0.95" vaporized=""/>
    <tripinfo id="50" depart="43.00" departLane="542000903#0_0" departPos="5.10" departSpeed="11.11" departDelay="0.50" arrival="178.00" arrivalLane="145341879#2_0" arrivalPos="142.21" arrivalSpeed="16.60" duration="135.00" routeLength="980.31" waitingTime="46.00" waitingCount="1" stopTime="0.00" timeLoss="56.09" rerouteNo="0" devices="tripinfo_50" vType="DEFAULT_VEHTYPE" speedFactor="1.01" vaporized=""/>
    <tripinfo id="74" depart="63.00" departLane="993713961#0_0" departPos="5.10" departSpeed="0.00" departDelay="0.10" arrival="182.00" arrivalLane="-993713961#1_0" arrivalPos="73.80" arrivalSpeed="12.92" duration="119.00" routeLength="1092.85" waitingTime="0.00" waitingCount="0" stopTime="0.00" timeLoss="19.60" rerouteNo="0" devices="tripinfo_74" vType="DEFAULT_VEHTYPE" speedFactor="0.99" vaporized=""/>
    <tripinfo id="122" depart="104.00" departLane="444687390#0_0" departPos="5.10" departSpeed="10.68" departDelay="0.30" arrival="182.00" arrivalLane="145341879#2_0" arrivalPos="142.21" arrivalSpeed="15.89" duration="78.00" routeLength="784.85" waitingTime="0.00" waitingCount="0" stopTime="0.00" timeLoss="7.53" rerouteNo="0" devices="tripinfo_122" vType="DEFAULT_VEHTYPE" speedFactor="0.96" vaporized=""/>
    <tripinfo id="180" depart="153.00" departLane="265801394#0_0" departPos="5.10" departSpeed="16.40" departDelay="0.00" arrival="182.00" arrivalLane="-40566492_0" arrivalPos="154.32" arrivalSpeed="12.38" duration="29.00" routeLength="398.33" waitingTime="0.00" waitingCount="0" stopTime="0.00" timeLoss="3.68" rerouteNo="0" devices="tripinfo_180" vType="DEFAULT_VEHTYPE" speedFactor="0.93" vaporized=""/>
    <tripinfo id="198" depart="169.00" departLane="40566448#0_0" departPos="5.10" departSpeed="11.11" departDelay="0.70" arrival="182.00" arrivalLane="40566448#1_0" arrivalPos="74.78" arrivalSpeed="11.27" duration="13.00" routeLength="152.06" waitingTime="0.00" waitingCount="0" stopTime="0.00" timeLoss="0.68" rerouteNo="0" devices="tripinfo_198" vType="DEFAULT_VEHTYPE" speedFactor="1.12" vaporized=""/>
    <tripinfo id="64" depart="55.00" departLane="-394515874#1_0" departPos="5.10" departSpeed="13.34" departDelay="0.60" arrival="185.00" arrivalLane="1098103533_0" arrivalPos="80.62" arrivalSpeed="12.78" duration="130.00" routeLength="1479.30" waitingTime="0.00" waitingCount="0" stopTime="0.00" timeLoss="17.33" rerouteNo="0" devices="tripinfo_64" vType="DEFAULT_VEHTYPE" speedFactor="0.96" vaporized=""/>
    <tripinfo id="137" depart="117.00" departLane="144165458#4_2" departPos="5.10" departSpeed="16.67" departDelay="0.55" arrival="187.00" arrivalLane="651807443#2_0" arrivalPos="76.22" arrivalSpeed="13.66" duration="70.00" routeLength="713.36" waitingTime="0.00" waitingCount="0" stopTime="0.00" timeLoss="15.68" rerouteNo="0" devices="tripinfo_137" vType="DEFAULT_VEHTYPE" speedFactor="1.05" vaporized=""/>
    <tripinfo id="139" depart="119.00" departLane="542000905#0_2" departPos="5.10" departSpeed="12.19" departDelay="0.85" arrival="189.00" arrivalLane="143173598#0_1" arrivalPos="488.33" arrivalSpeed="14.87" duration="70.00" routeLength="980.66" waitingTime="0.00" waitingCount="0" stopTime="0.00" timeLoss="4.59" rerouteNo="0" devices="tripinfo_139" vType="DEFAULT_VEHTYPE" speedFactor="1.10" vaporized=""/>
    <tripinfo id="99" depart="85.00" departLane="265801394#1_0" departPos="5.10" departSpeed="12.88" departDelay="0.85" arrival="190.00" arrivalLane="974590281_0" arrivalPos="64.66" arrivalSpeed="13.65" duration="105.00" routeLength="1025.28" waitingTime="1.00" waitingCount="1" stopTime="0.00" timeLoss="24.16" rerouteNo="0" devices="tripinfo_99" vType="DEFAULT_VEHTYPE" speedFactor="1.00" vaporized=""/>
    <tripinfo id="93" depart="80.00" departLane="-1098103533_0" departPos="5.10" departSpeed="10.36" departDelay="0.95" arrival="200.00" arrivalLane="1098103533_0" arrivalPos="80.62" arrivalSpeed="13.28" duration="120.00" routeLength="1109.57" waitingTime="0.00" waitingCount="0" stopTime="0.00" timeLoss="22.08" rerouteNo="0" devices="tripinfo_93" vType="DEFAULT_VEHTYPE" speedFactor="1.00" vaporized=""/>
    <tripinfo id="157" depart="134.00" departLane="407148734#0_0" departPos="5.10" departSpeed="9.74" departDelay="0.55" arrival="200.00" arrivalLane="143173600#0_0" arrivalPos="291.79" arrivalSpeed="11.51" duration="66.00" routeLength="754.86" waitingTime="0.00" waitingCount="0" stopTime="0.00" timeLoss="8.95" rerouteNo="0" devices="tripinfo_157" vType="DEFAULT_VEHTYPE" speedFactor="0.88" vaporized=""/>
    <tripinfo id="194" depart="165.00" departLane="384994567#2_0" departPos="5.10" departSpeed="17.49" departDelay="0.10" arrival="200.00" arrivalLane="1083921692_0" arrivalPos="74.91" arrivalSpeed="11.61" duration="35.00" routeLength="487.77" waitingTime="0.00" waitingCount="0" stopTime="0.00" timeLoss="5.57" rerouteNo="0" devices="tripinfo_194" vType="DEFAULT_VEHTYPE" speedFactor="0.88" vaporized=""/>
    <tripinfo id="92" depart="79.00" departLane="-40566493_0" departPos="5.10" departSpeed="13.15" departDelay="0.80" arrival="204.00" arrivalLane="974590281_0" arrivalPos="64.66" arrivalSpeed="13.59" duration="125.00" routeLength="1185.01" waitingTime="0.00" waitingCount="0" stopTime="0.00" timeLoss="33.02" rerouteNo="0" devices="tripinfo_92" vType="DEFAULT_VEHTYPE" speedFactor="1.02" vaporized=""/>
    <tripinfo id="88" depart="75.00" departLane="-40566493_0" departPos="5.10" departSpeed="13.89" departDelay="0.20" arrival="206.00" arrivalLane="143173598#0_0" arrivalPos="488.33" arrivalSpeed="13.23" duration="131.00" routeLength="1456.20" waitingTime="0.00" waitingCount="0" stopTime="0.00" timeLoss="24.93" rerouteNo="0" devices="tripinfo_88" vType="DEFAULT_VEHTYPE" speedFactor="1.03" vaporized=""/>
    <tripinfo id="134" depart="114.00" departLane="-40566493_0" departPos="5.10" departSpeed="13.62" departDelay="0.10" arrival="206.00" arrivalLane="651807443#2_0" arrivalPos="76.22" arrivalSpeed="13.64" duration="92.00" routeLength="950.13" waitingTime="0.00" waitingCount="0" stopTime="0.00" timeLoss="19.99" rerouteNo="0" devices="tripinfo_134" vType="DEFAULT_VEHTYPE" speedFactor="1.01" vaporized=""/>
    <tripinfo id="135" depart="115.00" departLane="650637872_0" departPos="1.48" departSpeed="0.00" departDelay="0.25" arrival="207.00" arrivalLane="974590281_0" arrivalPos="64.66" arrivalSpeed="13.92" duration="92.00" routeLength="904.62" waitingTime="0.00" waitingCount="0" stopTime="0.00" timeLoss="21.70" rerouteNo="0" devices="tripinfo_135" vType="DEFAULT_VEHTYPE" speedFactor="1.04" vaporized=""/>
    <tripinfo id="173" depart="148.00" departLane="-974590281_0" departPos="5.10" departSpeed="13.55" departDelay="0.95" arrival="207.00" arrivalLane="-394515874#0_0" arrivalPos="147.28" arrivalSpeed="12.30" duration="59.00" routeLength="620.68" waitingTime="0.00" waitingCount="0" stopTime="0.00" timeLoss="9.73" rerouteNo="0" devices="tripinfo_173" vType="DEFAULT_VEHTYPE" speedFactor="0.98" vaporized=""/>
    <tripinfo id="115" depart="98.00" departLane="444687390#0_0" departPos="5.10" departSpeed="11.11" departDelay="0.25" arrival="208.00" arrivalLane="1098103533_0" arrivalPos="80.62" arrivalSpeed="13.14" duration="110.00" routeLength="1112.90" waitingTime="0.00" waitingCount="0" stopTime="0.00" timeLoss="11.79" rerouteNo="0" devices="tripinfo_115" vType="DEFAULT_VEHTYPE" speedFactor="1.01" vaporized=""/>
    <tripinfo id="179" depart="153.00" departLane="-974590281_0" departPos="5.10" departSpeed="6.17" departDelay="0.85" arrival="217.00" arrivalLane="974590281_0" arrivalPos="64.66" arrivalSpeed="13.48" duration="64.00" routeLength="625.79" waitingTime="0.00" waitingCount="0" stopTime="0.00" timeLoss="13.28" rerouteNo="0" devices="tripinfo_179" vType="DEFAULT_VEHTYPE" speedFactor="1.00" vaporized=""/>
    <tripinfo id="226" depart="193.00" departLane="144165458#2_0" departPos="5.10" departSpeed="16.67" departDelay="0.90" arrival="218.00" arrivalLane="40566448#1_0" arrivalPos="74.78" arrivalSpeed="11.38" duration="25.00" routeLength="288.36" waitingTime="0.00" waitingCount="0" stopTime="0.00" timeLoss="2.53" rerouteNo="0" devices="tripinfo_226" vType="DEFAULT_VEHTYPE" speedFactor="1.03" vaporized=""/>
    <tripinfo id="149" depart="127.00" departLane="993713961#0_0" departPos="5.10" departSpeed="12.95" departDelay="0.35" arrival="219.00" arrivalLane="145341879#2_0" arrivalPos="142.21" arrivalSpeed="15.45" duration="92.00" routeLength="848.22" waitingTime="9.00" waitingCount="1" stopTime="0.00" timeLoss="20.71" rerouteNo="0" devices="tripinfo_149" vType="DEFAULT_VEHTYPE" speedFactor="0.93" vaporized=""/>
    <tripinfo id="210" depart="179.00" departLane="-40566493_0" departPos="5.10" departSpeed="13.89" departDelay="0.50" arrival="220.00" arrivalLane="144165458#5_0" arrivalPos="245.43" arrivalSpeed="16.57" duration="41.00" routeLength="525.58" waitingTime="0.00" waitingCount="0" stopTime="0.00" timeLoss="8.19" rerouteNo="0" devices="tripinfo_210" vType="DEFAULT_VEHTYPE" speedFactor="1.06" vaporized=""/>
    <tripinfo id="170" depart="145.00" departLane="-1098103533_0" departPos="5.10" departSpeed="13.89" departDelay="0.50" arrival="221.00" arrivalLane="145341879#2_0" arrivalPos="142.21" arrivalSpeed="16.44" duration="76.00" routeLength="886.66" waitingTime="0.00" waitingCount="0" stopTime="0.00" timeLoss="7.55" rerouteNo="0" devices="tripinfo_170" vType="DEFAULT_VEHTYPE" speedFactor="1.03" vaporized=""/>
    <tripinfo id="104" depart="89.00" departLane="-1098103533_0" departPos="5.10" departSpeed="12.04" departDelay="0.60" arrival="222.00" arrivalLane="1098103533_0" arrivalPos="80.62" arrivalSpeed="11.95" duration="133.00" routeLength="1109.57" waitingTime="2.00" waitingCount="1" stopTime="0.00" timeLoss="19.77" rerouteNo="0" devices="tripinfo_104" vType="DEFAULT_VEHTYPE" speedFactor="0.87" vaporized=""/>
    <tripinfo id="142" depart="121.00" departLane="127327261_0" departPos="5.10" departSpeed="13.09" departDelay="0.30" arrival="230.00" arrivalLane="542000903#6_0" arrivalPos="15.63" arrivalSpeed="10.28" duration="109.00" routeLength="1102.57" waitingTime="1.00" waitingCount="1" stopTime="0.00" timeLoss="17.13" rerouteNo="0" devices="tripinfo_142" vType="DEFAULT_VEHTYPE" speedFactor="0.94" vaporized=""/>
    <tripinfo id="150" depart="128.00" departLane="992786137_0" departPos="5.10" departSpeed="9.38" departDelay="0.50" arrival="233.00" arrivalLane="-993713961#1_0" arrivalPos="73.80" arrivalSpeed="14.14" duration="105.00" routeLength="1112.79" waitingTime="0.00" waitingCount="0" stopTime="0.00" timeLoss="12.51" rerouteNo="0" devices="tripinfo_150" vType="DEFAULT_VEHTYPE" speedFactor="1.07" vaporized=""/>
    <tripinfo id="250" depart="213.00" departLane="265801394#0_0" departPos="5.10" departSpeed="22.22" departDelay="0.50" arrival="238.00" arrivalLane="40566493_0" arrivalPos="150.34" arrivalSpeed="14.39" duration="25.00" routeLength="384.27" waitingTime="0.00" waitingCount="0" stopTime="0.00" timeLoss="3.86" rerouteNo="0" devices="tripinfo_250" vType="DEFAULT_VEHTYPE" speedFactor="1.09" vaporized=""/>
    <tripinfo id="190" depart="163.00" departLane="542000903#4_0" departPos="5.10" departSpeed="11.11" departDelay="1.50" arrival="247.00" arrivalLane="145341879#2_0" arrivalPos="142.21" arrivalSpeed="16.45" duration="84.00" routeLength="797.86" waitingTime="14.00" waitingCount="1" stopTime="0.00" timeLoss="23.90" rerouteNo="0" devices="tripinfo_190" vType="DEFAULT_VEHTYPE" speedFactor="1.05" vaporized=""/>
    <tripinfo id="261" depart="222.00" departLane="265801394#0_0" departPos="5.10" departSpeed="16.19" departDelay="0.15" arrival="249.00" arrivalLane="40566493_0" arrivalPos="150.34" arrivalSpeed="13.17" duration="27.00" routeLength="384.27" waitingTime="0.00" waitingCount="0" stopTime="0.00" timeLoss="3.81" rerouteNo="0" devices="tripinfo_261" vType="DEFAULT_VEHTYPE" speedFactor="0.97" vaporized=""/>
    <tripinfo id="224" depart="191.00" departLane="542000905#0_2" departPos="5.10" departSpeed="13.09" departDelay="0.60" arrival="257.00" arrivalLane="974590281_0" arrivalPos="64.66" arrivalSpeed="12.30" duration="66.00" routeLength="723.26" waitingTime="0.00" waitingCount="0" stopTime="0.00" timeLoss="5.99" rerouteNo="0" devices="tripinfo_224" vType="DEFAULT_VEHTYPE" speedFactor="0.94" vaporized=""/>
    <tripinfo id="202" depart="172.00" departLane="384994569#0_0" departPos="5.10" departSpeed="12.67" departDelay="0.30" arrival="262.00" arrivalLane="32866078_0" arrivalPos="309.55" arrivalSpeed="8.85" duration="90.00" routeLength="823.99" waitingTime="0.00" waitingCount="0" stopTime="0.00" timeLoss="8.54" rerouteNo="0" devices="tripinfo_202" vType="DEFAULT_VEHTYPE" speedFactor="0.91" vaporized=""/>
    <tripinfo id="277" depart="236.00" departLane="265801394#1_0" departPos="5.10" departSpeed="3.78" departDelay="0.55" arrival="264.00" arrivalLane="144165458#5_0" arrivalPos="245.43" arrivalSpeed="16.48" duration="28.00" routeLength="365.85" waitingTime="0.00" waitingCount="0" stopTime="0.00" timeLoss="7.06" rerouteNo="0" devices="tripinfo_277" vType="DEFAULT_VEHTYPE" speedFactor="1.03" vaporized=""/>
    <tripinfo id="293" depart="250.00" departLane="265801394#0_0" departPos="5.10" departSpeed="22.22" departDelay="0.95" arrival="273.00" arrivalLane="-40566492_0" arrivalPos="154.32" arrivalSpeed="14.95" duration="23.00" routeLength="398.33" waitingTime="0.00" waitingCount="0" stopTime="0.00" timeLoss="2.53" rerouteNo="0" devices="tripinfo_293" vType="DEFAULT_VEHTYPE" speedFactor="1.14" vaporized=""/>
    <tripinfo id="175" depart="149.00" departLane="265801394#0_0" departPos="5.10" departSpeed="17.42" departDelay="0.25" arrival="274.00" arrivalLane="127327262#1_0" arrivalPos="105.38" arrivalSpeed="3.25" duration="125.00" routeLength="840.83" waitingTime="1.00" waitingCount="1" stopTime="0.00" timeLoss="23.90" rerouteNo="0" devices="tripinfo_175" vType="DEFAULT_VEHTYPE" speedFactor="0.78" vaporized=""/>
    <tripinfo id="269" depart="238.00" departLane="650637874#0_0" departPos="5.10" departSpeed="13.50" departDelay="9.35" arrival="276.00" arrivalLane="164018894#1_0" arrivalPos="52.37" arrivalSpeed="9.52" duration="38.00" routeLength="434.38" waitingTime="0.00" waitingCount="0" stopTime="0.00" timeLoss="5.69" rerouteNo="0" devices="tripinfo_269" vType="DEFAULT_VEHTYPE" speedFactor="0.97" vaporized=""/>