<?xml version="1.0" encoding="UTF-8"?>

<!-- generated on 2026-07-21T03:37:37.652931+00:00 by Eclipse SUMO sumo 1.27.1
<sumoConfiguration xmlns:xsi="http://www.w3.org/2001/XMLSchema-instance" xsi:noNamespaceSchemaLocation="http://sumo.dlr.de/xsd/sumoConfiguration.xsd">

    <input>
        <net-file value="cenarios/almirante/belem.net.xml"/>
        <route-files value="cenarios/almirante/rotas.rou.xml"/>
    </input>

    <output>
        <tripinfo-output value="/home/ademir/felipe/belem-rl/outputs/tripinfo_dqn_com_optuna_velocity_time.xml"/>
        <tripinfo-output.write-unfinished value="true"/>
    </output>

    <processing>
        <time-to-teleport value="-1"/>
        <waiting-time-memory value="1000"/>
        <max-depart-delay value="-1"/>
    </processing>

    <report>
        <no-warnings value="true"/>
    </report>

    <traci_server>
        <remote-port value="35263"/>
    </traci_server>

    <random_number>
        <random value="true"/>
    </random_number>

</sumoConfiguration>
-->

<tripinfos xmlns:xsi="http://www.w3.org/2001/XMLSchema-instance" xsi:noNamespaceSchemaLocation="http://sumo.dlr.de/xsd/tripinfo_file.xsd">
    <tripinfo id="11" depart="10.00" departLane="-1098103533_0" departPos="5.10" departSpeed="13.20" departDelay="0.65" arrival="30.00" arrivalLane="-993713961#1_0" arrivalPos="73.80" arrivalSpeed="12.72" duration="20.00" routeLength="184.66" waitingTime="0.00" waitingCount="0" stopTime="0.00" timeLoss="4.11" rerouteNo="0" devices="tripinfo_11" vType="DEFAULT_VEHTYPE" speedFactor="0.95" vaporized=""/>
    <tripinfo id="22" depart="19.00" departLane="143173609#0_2" departPos="5.10" departSpeed="9.67" departDelay="0.30" arrival="44.00" arrivalLane="974590281_0" arrivalPos="64.66" arrivalSpeed="11.57" duration="25.00" routeLength="220.59" waitingTime="0.00" waitingCount="0" stopTime="0.00" timeLoss="2.70" rerouteNo="0" devices="tripinfo_22" vType="DEFAULT_VEHTYPE" speedFactor="0.87" vaporized=""/>
    <tripinfo id="14" depart="12.00" departLane="145341872_0" departPos="5.10" departSpeed="16.05" departDelay="0.10" arrival="47.00" arrivalLane="145341879#2_1" arrivalPos="142.21" arrivalSpeed="15.18" duration="35.00" routeLength="477.58" waitingTime="0.00" waitingCount="0" stopTime="0.00" timeLoss="4.38" rerouteNo="0" devices="tripinfo_14" vType="DEFAULT_VEHTYPE" speedFactor="0.96" vaporized=""/>
    <tripinfo id="57" depart="49.00" departLane="542000903#4_0" departPos="5.10" departSpeed="10.40" departDelay="0.55" arrival="60.00" arrivalLane="-993713961#1_0" arrivalPos="73.80" arrivalSpeed="12.58" duration="11.00" routeLength="95.86" waitingTime="0.00" waitingCount="0" stopTime="0.00" timeLoss="1.75" rerouteNo="0" devices="tripinfo_57" vType="DEFAULT_VEHTYPE" speedFactor="0.94" vaporized=""/>
    <tripinfo id="13" depart="12.00" departLane="384994567#1_0" departPos="5.10" departSpeed="22.22" departDelay="0.95" arrival="68.00" arrivalLane="974590281_0" arrivalPos="64.66" arrivalSpeed="13.41" duration="56.00" routeLength="626.09" waitingTime="3.00" waitingCount="1" stopTime="0.00" timeLoss="13.91" rerouteNo="0" devices="tripinfo_13" vType="DEFAULT_VEHTYPE" speedFactor="1.04" vaporized=""/>
    <tripinfo id="55" depart="47.00" departLane="144165458#2_0" departPos="5.10" departSpeed="16.67" departDelay="0.25" arrival="77.00" arrivalLane="-40566492_0" arrivalPos="154.32" arrivalSpeed="14.16" duration="30.00" routeLength="362.34" waitingTime="0.00" waitingCount="0" stopTime="0.00" timeLoss="4.32" rerouteNo="0" devices="tripinfo_55" vType="DEFAULT_VEHTYPE" speedFactor="1.05" vaporized=""/>
    <tripinfo id="56" depart="48.00" departLane="651807443#0_0" departPos="5.10" departSpeed="13.70" departDelay="0.40" arrival="85.00" arrivalLane="974590281_0" arrivalPos="64.66" arrivalSpeed="13.06" duration="37.00" routeLength="377.43" waitingTime="0.00" waitingCount="0" stopTime="0.00" timeLoss="4.89" rerouteNo="0" devices="tripinfo_56" vType="DEFAULT_VEHTYPE" speedFactor="0.99" vaporized=""/>
    <tripinfo id="36" depart="31.00" departLane="-127327263_0" departPos="5.10" departSpeed="7.31" departDelay="0.40" arrival="88.00" arrivalLane="384994569#3_1" arrivalPos="0.20" arrivalSpeed="11.82" duration="57.00" routeLength="587.50" waitingTime="0.00" waitingCount="0" stopTime="0.00" timeLoss="6.62" rerouteNo="0" devices="tripinfo_36" vType="DEFAULT_VEHTYPE" speedFactor="0.88" vaporized=""/>
    <tripinfo id="1" depart="1.00" departLane="143173610#0_2" departPos="5.10" departSpeed="10.96" departDelay="0.15" arrival="90.00" arrivalLane="1098103533_0" arrivalPos="80.62" arrivalSpeed="12.93" duration="89.00" routeLength="611.19" waitingTime="24.00" waitingCount="1" stopTime="0.00" timeLoss="34.22" rerouteNo="0" devices="tripinfo_1" vType="DEFAULT_VEHTYPE" speedFactor="0.99" vaporized=""/>
    <tripinfo id="19" depart="17.00" departLane="-127327262#0_0" departPos="5.10" departSpeed="5.47" departDelay="0.85" arrival="90.00" arrivalLane="143173598#0_0" arrivalPos="488.33" arrivalSpeed="12.42" duration="73.00" routeLength="877.81" waitingTime="0.00" waitingCount="0" stopTime="0.00" timeLoss="9.89" rerouteNo="0" devices="tripinfo_19" vType="DEFAULT_VEHTYPE" speedFactor="0.98" vaporized=""/>
    <tripinfo id="103" depart="88.00" departLane="993713963#0_0" departPos="5.10" departSpeed="8.52" departDelay="0.45" arrival="93.00" arrivalLane="993713963#0_0" arrivalPos="40.04" arrivalSpeed="8.04" duration="5.00" routeLength="34.94" waitingTime="0.00" waitingCount="0" stopTime="0.00" timeLoss="0.35" rerouteNo="0" devices="tripinfo_103" vType="DEFAULT_VEHTYPE" speedFactor="0.77" vaporized=""/>
    <tripinfo id="29" depart="25.00" departLane="-974590281_0" departPos="5.10" departSpeed="12.01" departDelay="0.35" arrival="106.00" arrivalLane="974590281_0" arrivalPos="64.66" arrivalSpeed="11.68" duration="81.00" routeLength="625.79" waitingTime="10.00" waitingCount="1" stopTime="0.00" timeLoss="24.30" rerouteNo="0" devices="tripinfo_29" vType="DEFAULT_VEHTYPE" speedFactor="0.86" vaporized=""/>
    <tripinfo id="94" depart="80.00" departLane="40566492_0" departPos="5.10" departSpeed="11.75" departDelay="0.10" arrival="106.00" arrivalLane="40566448#1_0" arrivalPos="74.78" arrivalSpeed="8.46" duration="26.00" routeLength="233.26" waitingTime="0.00" waitingCount="0" stopTime="0.00" timeLoss="3.15" rerouteNo="0" devices="tripinfo_94" vType="DEFAULT_VEHTYPE" speedFactor="0.85" vaporized=""/>
    <tripinfo id="32" depart="28.00" departLane="143173609#0_0" departPos="5.10" departSpeed="10.85" departDelay="0.80" arrival="108.00" arrivalLane="127327263_0" arrivalPos="149.76" arrivalSpeed="6.51" duration="80.00" routeLength="688.17" waitingTime="0.00" waitingCount="0" stopTime="0.00" timeLoss="17.45" rerouteNo="0" devices="tripinfo_32" vType="DEFAULT_VEHTYPE" speedFactor="0.98" vaporized=""/>
    <tripinfo id="30" depart="26.00" departLane="650637874#1_0" departPos="5.10" departSpeed="16.67" departDelay="0.50" arrival="112.00" arrivalLane="143173600#0_0" arrivalPos="291.79" arrivalSpeed="16.06" duration="86.00" routeLength="1191.28" waitingTime="7.00" waitingCount="1" stopTime="0.00" timeLoss="19.97" rerouteNo="0" devices="tripinfo_30" vType="DEFAULT_VEHTYPE" speedFactor="1.18" vaporized=""/>
    <tripinfo id="15" depart="13.00" departLane="542000905#0_2" departPos="5.10" departSpeed="15.03" departDelay="0.25" arrival="115.00" arrivalLane="384994567#2_0" arrivalPos="181.58" arrivalSpeed="24.48" duration="102.00" routeLength="1282.11" waitingTime="1.00" waitingCount="1" stopTime="0.00" timeLoss="21.61" rerouteNo="0" devices="tripinfo_15" vType="DEFAULT_VEHTYPE" speedFactor="1.12" vaporized=""/>
    <tripinfo id="105" depart="90.00" departLane="143173609#0_2" departPos="5.10" departSpeed="9.37" departDelay="0.75" arrival="116.00" arrivalLane="974590281_0" arrivalPos="64.66" arrivalSpeed="11.61" duration="26.00" routeLength="220.59" waitingTime="0.00" waitingCount="0" stopTime="0.00" timeLoss="2.61" rerouteNo="0" devices="tripinfo_105" vType="DEFAULT_VEHTYPE" speedFactor="0.84" vaporized=""/>
    <tripinfo id="42" depart="36.00" departLane="143173609#0_0" departPos="5.10" departSpeed="9.76" departDelay="0.30" arrival="118.00" arrivalLane="384994573#2_0" arrivalPos="107.54" arrivalSpeed="21.52" duration="82.00" routeLength="1123.47" waitingTime="0.00" waitingCount="0" stopTime="0.00" timeLoss="15.03" rerouteNo="0" devices="tripinfo_42" vType="DEFAULT_VEHTYPE" speedFactor="1.01" vaporized=""/>
    <tripinfo id="48" depart="41.00" departLane="144165458#2_2" departPos="5.10" departSpeed="16.67" departDelay="0.20" arrival="118.00" arrivalLane="384994573#0_1" arrivalPos="185.88" arrivalSpeed="21.33" duration="77.00" routeLength="931.32" waitingTime="0.00" waitingCount="0" stopTime="0.00" timeLoss="13.38" rerouteNo="0" devices="tripinfo_48" vType="DEFAULT_VEHTYPE" speedFactor="1.00" vaporized=""/>
    <tripinfo id="102" depart="87.00" departLane="144165458#2_0" departPos="5.10" departSpeed="16.67" departDelay="0.30" arrival="118.00" arrivalLane="40566493_0" arrivalPos="150.34" arrivalSpeed="14.12" duration="31.00" routeLength="368.17" waitingTime="0.00" waitingCount="0" stopTime="0.00" timeLoss="3.76" rerouteNo="0" devices="tripinfo_102" vType="DEFAULT_VEHTYPE" speedFactor="1.02" vaporized=""/>
    <tripinfo id="5" depart="5.00" departLane="-1083921692_0" departPos="5.10" departSpeed="13.89" departDelay="0.75" arrival="120.00" arrivalLane="1098103533_0" arrivalPos="80.62" arrivalSpeed="13.84" duration="115.00" routeLength="1168.53" waitingTime="0.00" waitingCount="0" stopTime="0.00" timeLoss="23.79" rerouteNo="0" devices="tripinfo_5" vType="DEFAULT_VEHTYPE" speedFactor="1.06" vaporized=""/>
    <tripinfo id="54" depart="46.00" departLane="651807443#0_0" departPos="5.10" departSpeed="13.89" departDelay="0.10" arrival="125.00" arrivalLane="607763868#0_0" arrivalPos="103.61" arrivalSpeed="17.11" duration="79.00" routeLength="550.40" waitingTime="32.00" waitingCount="1" stopTime="0.00" timeLoss="43.39" rerouteNo="0" devices="tripinfo_54" vType="DEFAULT_VEHTYPE" speedFactor="1.10" vaporized=""/>
    <tripinfo id="45" depart="39.00" departLane="650637874#1_0" departPos="5.10" departSpeed="12.46" departDelay="0.75" arrival="127.00" arrivalLane="143173598#0_0" arrivalPos="488.33" arrivalSpeed="12.29" duration="88.00" routeLength="1025.90" waitingTime="3.00" waitingCount="1" stopTime="0.00" timeLoss="16.77" rerouteNo="0" devices="tripinfo_45" vType="DEFAULT_VEHTYPE" speedFactor="0.93" vaporized=""/>
    <tripinfo id="21" depart="18.00" departLane="145341872_0" departPos="5.10" departSpeed="8.91" departDelay="0.15" arrival="137.00" arrivalLane="1098103533_0" arrivalPos="80.62" arrivalSpeed="16.02" duration="119.00" routeLength="1412.79" waitingTime="0.00" waitingCount="0" stopTime="0.00" timeLoss="19.06" rerouteNo="0" devices="tripinfo_21" vType="DEFAULT_VEHTYPE" speedFactor="1.17" vaporized=""/>
    <tripinfo id="26" depart="23.00" departLane="607763868#1_0" departPos="5.10" departSpeed="16.67" departDelay="0.90" arrival="138.00" arrivalLane="407148740#0_0" arrivalPos="140.43" arrivalSpeed="11.56" duration="115.00" routeLength="1201.56" waitingTime="11.00" waitingCount="1" stopTime="0.00" timeLoss="39.12" rerouteNo="0" devices="tripinfo_26" vType="DEFAULT_VEHTYPE" speedFactor="1.13" vaporized=""/>
    <tripinfo id="84" depart="72.00" departLane="145341872_0" departPos="5.10" departSpeed="16.52" departDelay="0.60" arrival="151.00" arrivalLane="992786137_0" arrivalPos="308.30" arrivalSpeed="9.95" duration="79.00" routeLength="624.92" waitingTime="18.00" waitingCount="1" stopTime="0.00" timeLoss="30.32" rerouteNo="0" devices="tripinfo_84" vType="DEFAULT_VEHTYPE" speedFactor="0.99" vaporized=""/>
    <tripinfo id="7" depart="6.00" departLane="-974590281_0" departPos="5.10" departSpeed="12.78" departDelay="0.05" arrival="160.00" arrivalLane="207073941#0_0" arrivalPos="243.61" arrivalSpeed="10.35" duration="154.00" routeLength="1440.51" waitingTime="20.00" waitingCount="1" stopTime="0.00" timeLoss="38.70" rerouteNo="0" devices="tripinfo_7" vType="DEFAULT_VEHTYPE" speedFactor="0.99" vaporized=""/>
    <tripinfo id="46" depart="40.00" departLane="265801394#0_0" departPos="5.10" departSpeed="22.22" departDelay="0.90" arrival="160.00" arrivalLane="1083921692_0" arrivalPos="74.91" arrivalSpeed="13.90" duration="120.00" routeLength="1189.81" waitingTime="20.00" waitingCount="1" stopTime="0.00" timeLoss="44.79" rerouteNo="0" devices="tripinfo_46" vType="DEFAULT_VEHTYPE" speedFactor="1.04" vaporized=""/>
    <tripinfo id="33" depart="29.00" departLane="384994573#0_0" departPos="5.10" departSpeed="17.30" departDelay="0.95" arrival="164.00" arrivalLane="143173598#0_0" arrivalPos="488.33" arrivalSpeed="9.67" duration="135.00" routeLength="1316.38" waitingTime="0.00" waitingCount="0" stopTime="0.00" timeLoss="10.19" rerouteNo="0" devices="tripinfo_33" vType="DEFAULT_VEHTYPE" speedFactor="0.78" vaporized=""/>
    <tripinfo id="28" depart="24.00" departLane="144165458#2_2" departPos="5.10" departSpeed="16.67" departDelay="0.20" arrival="165.00" arrivalLane="143173598#0_0" arrivalPos="488.33" arrivalSpeed="12.64" duration="141.00" routeLength="1366.77" waitingTime="19.00" waitingCount="1" stopTime="0.00" timeLoss="40.62" rerouteNo="0" devices="tripinfo_28" vType="DEFAULT_VEHTYPE" speedFactor="1.01" vaporized=""/>
    <tripinfo id="49" depart="42.00" departLane="40566492_0" departPos="5.10" departSpeed="13.02" departDelay="0.35" arrival="165.00" arrivalLane="1083921692_0" arrivalPos="74.91" arrivalSpeed="12.65" duration="123.00" routeLength="1118.02" waitingTime="16.00" waitingCount="1" stopTime="0.00" timeLoss="39.15" rerouteNo="0" devices="tripinfo_49" vType="DEFAULT_VEHTYPE" speedFactor="0.94" vaporized=""/>
    <tripinfo id="59" depart="51.00" departLane="143173609#0_0" departPos="5.10" departSpeed="10.08" departDelay="0.85" arrival="167.00" arrivalLane="607763870#1_0" arrivalPos="314.36" arrivalSpeed="18.87" duration="116.00" routeLength="1482.83" waitingTime="0.00" waitingCount="0" stopTime="0.00" timeLoss="23.01" rerouteNo="0" devices="tripinfo_59" vType="DEFAULT_VEHTYPE" speedFactor="0.91" vaporized=""/>
    <tripinfo id="110" depart="94.00" departLane="542000905#0_2" departPos="5.10" departSpeed="13.89" departDelay="0.50" arrival="167.00" arrivalLane="143173598#0_1" arrivalPos="488.33" arrivalSpeed="14.46" duration="73.00" routeLength="980.66" waitingTime="0.00" waitingCount="0" stopTime="0.00" timeLoss="4.72" rerouteNo="0" devices="tripinfo_110" vType="DEFAULT_VEHTYPE" speedFactor="1.07" vaporized=""/>
    <tripinfo id="97" depart="83.00" departLane="40566492_0" departPos="5.10" departSpeed="11.64" departDelay="0.55" arrival="172.00" arrivalLane="384994567#2_1" arrivalPos="181.58" arrivalSpeed="18.93" duration="89.00" routeLength="806.73" waitingTime="0.00" waitingCount="0" stopTime="0.00" timeLoss="18.93" rerouteNo="0" devices="tripinfo_97" vType="DEFAULT_VEHTYPE" speedFactor="0.89" vaporized=""/>
    <tripinfo id="43" depart="37.00" departLane="-127327263_0" departPos="5.10" departSpeed="6.49" departDelay="0.45" arrival="173.00" arrivalLane="143173621_2" arrivalPos="174.03" arrivalSpeed="17.20" duration="136.00" routeLength="1108.18" waitingTime="21.00" waitingCount="1" stopTime="0.00" timeLoss="36.90" rerouteNo="0" devices="tripinfo_43" vType="DEFAULT_VEHTYPE" speedFactor="0.78" vaporized=""/>
    <tripinfo id="53" depart="47.00" departLane="-1083921692_0" departPos="5.10" departSpeed="12.09" departDelay="1.95" arrival="173.00" arrivalLane="651807443#2_0" arrivalPos="76.22" arrivalSpeed="12.41" duration="126.00" routeLength="1184.98" waitingTime="0.00" waitingCount="0" stopTime="0.00" timeLoss="21.19" rerouteNo="0" devices="tripinfo_53" vType="DEFAULT_VEHTYPE" speedFactor="0.94" vaporized=""/>
    <tripinfo id="4" depart="4.00" departLane="-974590281_0" departPos="5.10" departSpeed="13.86" departDelay="0.60" arrival="178.00" arrivalLane="145341879#1_0" arrivalPos="0.20" arrivalSpeed="15.53" duration="174.00" routeLength="1881.73" waitingTime="21.00" waitingCount="1" stopTime="0.00" timeLoss="42.54" rerouteNo="0" devices="tripinfo_4" vType="DEFAULT_VEHTYPE" speedFactor="1.00" vaporized=""/>
    <tripinfo id="180" depart="153.00" departLane="265801394#0_0" departPos="5.10" departSpeed="19.26" departDelay="0.00" arrival="178.00" arrivalLane="-40566492_0" arrivalPos="154.32" arrivalSpeed="13.96" duration="25.00" routeLength="398.33" waitingTime="0.00" waitingCount="0" stopTime="0.00" timeLoss="2.81" rerouteNo="0" devices="tripinfo_180" vType="DEFAULT_VEHTYPE" speedFactor="1.10" vaporized=""/>
    <tripinfo id="8" depart="7.00" departLane="542000905#0_2" departPos="5.10" departSpeed="13.89" departDelay="0.20" arrival="179.00" arrivalLane="-127327262#0_0" arrivalPos="28.15" arrivalSpeed="4.93" duration="172.00" routeLength="1409.21" waitingTime="43.00" waitingCount="2" stopTime="0.00" timeLoss="65.55" rerouteNo="0" devices="tripinfo_8" vType="DEFAULT_VEHTYPE" speedFactor="1.16" vaporized=""/>
    <tripinfo id="64" depart="55.00" departLane="-394515874#1_0" departPos="5.10" departSpeed="13.61" departDelay="0.60" arrival="184.00" arrivalLane="1098103533_0" arrivalPos="80.62" arrivalSpeed="12.47" duration="129.00" routeLength="1479.30" waitingTime="0.00" waitingCount="0" stopTime="0.00" timeLoss="20.37" rerouteNo="0" devices="tripinfo_64" vType="DEFAULT_VEHTYPE" speedFactor="0.98" vaporized=""/>
    <tripinfo id="198" depart="169.00" departLane="40566448#0_0" departPos="5.10" departSpeed="9.84" departDelay="0.70" arrival="186.00" arrivalLane="40566448#1_0" arrivalPos="74.78" arrivalSpeed="8.97" duration="17.00" routeLength="152.06" waitingTime="0.00" waitingCount="0" stopTime="0.00" timeLoss="0.91" rerouteNo="0" devices="tripinfo_198" vType="DEFAULT_VEHTYPE" speedFactor="0.89" vaporized=""/>
    <tripinfo id="91" depart="78.00" departLane="265801394#0_0" departPos="5.10" departSpeed="19.84" departDelay="0.65" arrival="192.00" arrivalLane="607763870#0_2" arrivalPos="22.64" arrivalSpeed="7.98" duration="114.00" routeLength="1261.48" waitingTime="4.00" waitingCount="1" stopTime="0.00" timeLoss="27.27" rerouteNo="0" devices="tripinfo_91" vType="DEFAULT_VEHTYPE" speedFactor="0.89" vaporized=""/>
    <tripinfo id="61" depart="52.00" departLane="-974590281_0" departPos="5.10" departSpeed="12.42" departDelay="0.15" arrival="195.00" arrivalLane="143173600#0_0" arrivalPos="291.79" arrivalSpeed="11.22" duration="143.00" routeLength="1519.72" waitingTime="11.00" waitingCount="1" stopTime="0.00" timeLoss="26.02" rerouteNo="0" devices="tripinfo_61" vType="DEFAULT_VEHTYPE" speedFactor="0.89" vaporized=""/>
    <tripinfo id="99" depart="85.00" departLane="265801394#1_0" departPos="5.10" departSpeed="15.21" departDelay="0.85" arrival="195.00" arrivalLane="974590281_0" arrivalPos="64.66" arrivalSpeed="12.38" duration="110.00" routeLength="1025.28" waitingTime="0.00" waitingCount="0" stopTime="0.00" timeLoss="21.61" rerouteNo="0" devices="tripinfo_99" vType="DEFAULT_VEHTYPE" speedFactor="0.93" vaporized=""/>
    <tripinfo id="100" depart="86.00" departLane="127327263_0" departPos="5.10" departSpeed="7.15" departDelay="1.00" arrival="198.00" arrivalLane="143173621_2" arrivalPos="174.03" arrivalSpeed="23.90" duration="112.00" routeLength="1086.14" waitingTime="8.00" waitingCount="1" stopTime="0.00" timeLoss="31.65" rerouteNo="0" devices="tripinfo_100" vType="DEFAULT_VEHTYPE" speedFactor="1.11" vaporized=""/>
    <tripinfo id="209" depart="178.00" departLane="-1083921692_0" departPos="5.10" departSpeed="13.27" departDelay="0.35" arrival="198.00" arrivalLane="384994573#2_0" arrivalPos="107.54" arrivalSpeed="21.12" duration="20.00" routeLength="186.46" waitingTime="2.00" waitingCount="1" stopTime="0.00" timeLoss="8.02" rerouteNo="0" devices="tripinfo_209" vType="DEFAULT_VEHTYPE" speedFactor="0.96" vaporized=""/>
    <tripinfo id="120" depart="102.00" departLane="-1083921692_0" departPos="5.10" departSpeed="13.89" departDelay="0.00" arrival="199.00" arrivalLane="407148734#2_0" arrivalPos="141.91" arrivalSpeed="11.72" duration="97.00" routeLength="1049.74" waitingTime="0.00" waitingCount="0" stopTime="0.00" timeLoss="17.31" rerouteNo="0" devices="tripinfo_120" vType="DEFAULT_VEHTYPE" speedFactor="1.11" vaporized=""/>
    <tripinfo id="122" depart="104.00" departLane="444687390#0_0" departPos="5.10" departSpeed="9.15" departDelay="0.30" arrival="199.00" arrivalLane="145341879#2_0" arrivalPos="142.21" arrivalSpeed="13.26" duration="95.00" routeLength="784.85" waitingTime="2.00" waitingCount="1" stopTime="0.00" timeLoss="15.95" rerouteNo="0" devices="tripinfo_122" vType="DEFAULT_VEHTYPE" speedFactor="0.85" vaporized=""/>
    <tripinfo id="137" depart="120.00" departLane="144165458#4_2" departPos="5.10" departSpeed="13.62" departDelay="3.55" arrival="199.00" arrivalLane="651807443#2_1" arrivalPos="76.22" arrivalSpeed="7.99" duration="79.00" routeLength="713.36" waitingTime="0.00" waitingCount="0" stopTime="0.00" timeLoss="17.28" rerouteNo="0" devices="tripinfo_137" vType="DEFAULT_VEHTYPE" speedFactor="0.92" vaporized=""/>
    <tripinfo id="83" depart="71.00" departLane="265801394#0_0" departPos="5.10" departSpeed="21.39" departDelay="0.45" arrival="201.00" arrivalLane="1098103533_0" arrivalPos="80.62" arrivalSpeed="12.55" duration="130.00" routeLength="1212.02" waitingTime="21.00" waitingCount="1" stopTime="0.00" timeLoss="37.33" rerouteNo="0" devices="tripinfo_83" vType="DEFAULT_VEHTYPE" speedFactor="0.96" vaporized=""/>
    <tripinfo id="194" depart="167.00" departLane="384994567#2_0" departPos="5.10" departSpeed="18.54" departDelay="2.10" arrival="201.00" arrivalLane="1083921692_0" arrivalPos="74.91" arrivalSpeed="13.87" duration="34.00" routeLength="487.77" waitingTime="0.00" waitingCount="0" stopTime="0.00" timeLoss="9.10" rerouteNo="0" devices="tripinfo_194" vType="DEFAULT_VEHTYPE" speedFactor="1.03" vaporized=""/>
    <tripinfo id="92" depart="79.00" departLane="-40566493_0" departPos="5.10" departSpeed="12.95" departDelay="0.80" arrival="203.00" arrivalLane="974590281_0" arrivalPos="64.66" arrivalSpeed="13.92" duration="124.00" routeLength="1185.01" waitingTime="0.00" waitingCount="0" stopTime="0.00" timeLoss="30.98" rerouteNo="0" devices="tripinfo_92" vType="DEFAULT_VEHTYPE" speedFactor="1.01" vaporized=""/>
    <tripinfo id="24" depart="21.00" departLane="-40566493_0" departPos="5.10" departSpeed="11.23" departDelay="0.60" arrival="204.00" arrivalLane="143173609#4_0" arrivalPos="148.55" arrivalSpeed="8.83" duration="183.00" routeLength="1272.16" waitingTime="23.00" waitingCount="2" stopTime="0.00" timeLoss="56.71" rerouteNo="0" devices="tripinfo_24" vType="DEFAULT_VEHTYPE" speedFactor="0.81" vaporized=""/>
    <tripinfo id="141" depart="120.00" departLane="650637874#0_0" departPos="5.10" departSpeed="16.67" departDelay="0.15" arrival="205.00" arrivalLane="607763870#1_0" arrivalPos="314.36" arrivalSpeed="22.57" duration="85.00" routeLength="1167.36" waitingTime="15.00" waitingCount="1" stopTime="0.00" timeLoss="30.84" rerouteNo="0" devices="tripinfo_141" vType="DEFAULT_VEHTYPE" speedFactor="1.02" vaporized=""/>
    <tripinfo id="106" depart="93.00" departLane="651807443#0_0" departPos="5.10" departSpeed="12.38" departDelay="2.90" arrival="206.00" arrivalLane="607763870#1_1" arrivalPos="314.36" arrivalSpeed="20.83" duration="113.00" routeLength="1454.78" waitingTime="8.00" waitingCount="1" stopTime="0.00" timeLoss="32.35" rerouteNo="0" devices="tripinfo_106" vType="DEFAULT_VEHTYPE" speedFactor="0.97" vaporized=""/>
    <tripinfo id="134" depart="114.00" departLane="-40566493_0" departPos="5.10" departSpeed="13.13" departDelay="0.10" arrival="207.00" arrivalLane="651807443#2_0" arrivalPos="76.22" arrivalSpeed="13.28" duration="93.00" routeLength="950.13" waitingTime="0.00" waitingCount="0" stopTime="0.00" timeLoss="21.19" rerouteNo="0" devices="tripinfo_134" vType="DEFAULT_VEHTYPE" speedFactor="1.02" vaporized=""/>
    <tripinfo id="139" depart="119.00" departLane="542000905#0_2" departPos="5.10" departSpeed="13.84" departDelay="0.85" arrival="207.00" arrivalLane="143173598#0_0" arrivalPos="488.33" arrivalSpeed="12.78" duration="88.00" routeLength="980.66" waitingTime="7.00" waitingCount="1" stopTime="0.00" timeLoss="15.84" rerouteNo="0" devices="tripinfo_139" vType="DEFAULT_VEHTYPE" speedFactor="1.01" vaporized=""/>
    <tripinfo id="128" depart="109.00" departLane="144165458#2_2" departPos="5.10" departSpeed="16.30" departDelay="0.20" arrival="210.00" arrivalLane="607763870#1_2" arrivalPos="314.36" arrivalSpeed="21.25" duration="101.00" routeLength="1412.62" waitingTime="0.00" waitingCount="0" stopTime="0.00" timeLoss="13.90" rerouteNo="0" devices="tripinfo_128" vType="DEFAULT_VEHTYPE" speedFactor="0.98" vaporized=""/>
    <tripinfo id="179" depart="153.00" departLane="-974590281_0" departPos="5.10" departSpeed="8.79" departDelay="0.85" arrival="212.00" arrivalLane="974590281_0" arrivalPos="64.66" arrivalSpeed="15.22" duration="59.00" routeLength="625.79" waitingTime="0.00" waitingCount="0" stopTime="0.00" timeLoss="14.37" rerouteNo="0" devices="tripinfo_179" vType="DEFAULT_VEHTYPE" speedFactor="1.13" vaporized=""/>
    <tripinfo id="88" depart="75.00" departLane="-40566493_0" departPos="5.10" departSpeed="13.79" departDelay="0.20" arrival="215.00" arrivalLane="143173598#0_0" arrivalPos="488.33" arrivalSpeed="13.60" duration="140.00" routeLength="1456.20" waitingTime="4.00" waitingCount="1" stopTime="0.00" timeLoss="29.86" rerouteNo="0" devices="tripinfo_88" vType="DEFAULT_VEHTYPE" speedFactor="0.99" vaporized=""/>
    <tripinfo id="210" depart="179.00" departLane="-40566493_0" departPos="5.10" departSpeed="13.89" departDelay="0.50" arrival="216.00" arrivalLane="144165458#5_0" arrivalPos="245.43" arrivalSpeed="19.12" duration="37.00" routeLength="525.58" waitingTime="0.00" waitingCount="0" stopTime="0.00" timeLoss="9.13" rerouteNo="0" devices="tripinfo_210" vType="DEFAULT_VEHTYPE" speedFactor="1.21" vaporized=""/>
    <tripinfo id="153" depart="131.00" departLane="-127327263_0" departPos="5.10" departSpeed="7.32" departDelay="0.95" arrival="217.00" arrivalLane="143173621_2" arrivalPos="174.03" arrivalSpeed="23.18" duration="86.00" routeLength="1108.18" waitingTime="0.00" waitingCount="0" stopTime="0.00" timeLoss="12.91" rerouteNo="0" devices="tripinfo_153" vType="DEFAULT_VEHTYPE" speedFactor="1.06" vaporized=""/>
    <tripinfo id="226" depart="193.00" departLane="144165458#2_0" departPos="5.10" departSpeed="16.22" departDelay="0.90" arrival="219.00" arrivalLane="40566448#1_0" arrivalPos="74.78" arrivalSpeed="10.33" duration="26.00" routeLength="288.36" waitingTime="0.00" waitingCount="0" stopTime="0.00" timeLoss="2.28" rerouteNo="0" devices="tripinfo_226" vType="DEFAULT_VEHTYPE" speedFactor="0.97" vaporized=""/>
    <tripinfo id="143" depart="122.00" departLane="164020090#0_1" departPos="5.10" departSpeed="10.67" departDelay="0.45" arrival="223.00" arrivalLane="143173599#0_2" arrivalPos="146.00" arrivalSpeed="13.32" duration="101.00" routeLength="792.68" waitingTime="17.00" waitingCount="1" stopTime="0.00" timeLoss="32.52" rerouteNo="0" devices="tripinfo_143" vType="DEFAULT_VEHTYPE" speedFactor="0.96" vaporized=""/>
    <tripinfo id="173" depart="148.00" departLane="-974590281_0" departPos="5.10" departSpeed="10.02" departDelay="0.95" arrival="227.00" arrivalLane="-394515874#0_0" arrivalPos="147.28" arrivalSpeed="9.04" duration="79.00" routeLength="620.68" waitingTime="0.00" waitingCount="0" stopTime="0.00" timeLoss="11.37" rerouteNo="0" devices="tripinfo_173" vType="DEFAULT_VEHTYPE" speedFactor="0.72" vaporized=""/>
    <tripinfo id="115" depart="98.00" departLane="444687390#0_0" departPos="5.10" departSpeed="10.15" departDelay="0.25" arrival="230.00" arrivalLane="1098103533_0" arrivalPos="80.62" arrivalSpeed="11.67" duration="132.00" routeLength="1112.90" waitingTime="7.00" waitingCount="1" stopTime="0.00" timeLoss="23.25" rerouteNo="0" devices="tripinfo_115" vType="DEFAULT_VEHTYPE" speedFactor="0.91" vaporized=""/>
    <tripinfo id="135" depart="118.00" departLane="650637872_0" departPos="1.48" departSpeed="0.00" departDelay="3.25" arrival="230.00" arrivalLane="974590281_0" arrivalPos="64.66" arrivalSpeed="11.77" duration="112.00" routeLength="904.62" waitingTime="8.00" waitingCount="1" stopTime="0.00" timeLoss="33.06" rerouteNo="0" devices="tripinfo_135" vType="DEFAULT_VEHTYPE" speedFactor="0.93" vaporized=""/>
    <tripinfo id="158" depart="135.00" departLane="144165458#2_2" departPos="5.10" departSpeed="16.67" departDelay="0.70" arrival="233.00" arrivalLane="607763869#0_0" arrivalPos="152.32" arrivalSpeed="8.48" duration="98.00" routeLength="1214.51" waitingTime="0.00" waitingCount="0" stopTime="0.00" timeLoss="18.00" rerouteNo="0" devices="tripinfo_158" vType="DEFAULT_VEHTYPE" speedFactor="1.05" vaporized=""/>
    <tripinfo id="208" depart="177.00" departLane="145341885#0_0" departPos="5.10" departSpeed="0.00" departDelay="0.20" arrival="233.00" arrivalLane="145341885#3_1" arrivalPos="306.21" arrivalSpeed="13.51" duration="56.00" routeLength="659.51" waitingTime="0.00" waitingCount="0" stopTime="0.00" timeLoss="29.67" rerouteNo="0" devices="tripinfo_208" vType="DEFAULT_VEHTYPE" speedFactor="1.14" vaporized=""/>
    <tripinfo id="85" depart="73.00" departLane="143173609#0_0" departPos="5.10" departSpeed="11.11" departDelay="0.75" arrival="234.00" arrivalLane="43196344#0_0" arrivalPos="137.10" arrivalSpeed="11.15" duration="161.00" routeLength="1533.80" waitingTime="38.00" waitingCount="1" stopTime="0.00" timeLoss="67.05" rerouteNo="0" devices="tripinfo_85" vType="DEFAULT_VEHTYPE" speedFactor="1.12" vaporized=""/>