<?xml version="1.0" encoding="UTF-8"?>

<!-- generated on 2026-07-21T03:43:50.754562+00:00 by Eclipse SUMO sumo 1.27.1
<sumoConfiguration xmlns:xsi="http://www.w3.org/2001/XMLSchema-instance" xsi:noNamespaceSchemaLocation="http://sumo.dlr.de/xsd/sumoConfiguration.xsd">

    <input>
        <net-file value="cenarios/almirante/belem.net.xml"/>
        <route-files value="cenarios/almirante/rotas.rou.xml"/>
    </input>

    <output>
        <tripinfo-output value="/home/ademir/felipe/belem-rl/outputs/tripinfo_dqn_sem_optuna_velocity_time_delta.xml"/>
        <tripinfo-output.write-unfinished value="true"/>
    </output>

    <processing>
        <time-to-teleport value="-1"/>
        <waiting-time-memory value="1000"/>
        <max-depart-delay value="-1"/>
    </processing>

    <report>
        <no-warnings value="true"/>
    </report>

    <traci_server>
        <remote-port value="38229"/>
    </traci_server>

    <random_number>
        <random value="true"/>
    </random_number>

</sumoConfiguration>
-->

<tripinfos xmlns:xsi="http://www.w3.org/2001/XMLSchema-instance" xsi:noNamespaceSchemaLocation="http://sumo.dlr.de/xsd/tripinfo_file.xsd">
    <tripinfo id="11" depart="10.00" departLane="-1098103533_0" departPos="5.10" departSpeed="13.89" departDelay="0.65" arrival="30.00" arrivalLane="-993713961#1_0" arrivalPos="73.80" arrivalSpeed="13.80" duration="20.00" routeLength="184.66" waitingTime="0.00" waitingCount="0" stopTime="0.00" timeLoss="4.30" rerouteNo="0" devices="tripinfo_11" vType="DEFAULT_VEHTYPE" speedFactor="1.05" vaporized=""/>
    <tripinfo id="22" depart="19.00" departLane="143173609#0_2" departPos="5.10" departSpeed="11.11" departDelay="0.30" arrival="39.00" arrivalLane="974590281_0" arrivalPos="64.66" arrivalSpeed="14.11" duration="20.00" routeLength="220.59" waitingTime="0.00" waitingCount="0" stopTime="0.00" timeLoss="2.15" rerouteNo="0" devices="tripinfo_22" vType="DEFAULT_VEHTYPE" speedFactor="1.08" vaporized=""/>
    <tripinfo id="14" depart="12.00" departLane="145341872_1" departPos="5.10" departSpeed="16.67" departDelay="0.10" arrival="42.00" arrivalLane="145341879#2_1" arrivalPos="142.21" arrivalSpeed="16.33" duration="30.00" routeLength="477.58" waitingTime="0.00" waitingCount="0" stopTime="0.00" timeLoss="1.47" rerouteNo="0" devices="tripinfo_14" vType="DEFAULT_VEHTYPE" speedFactor="1.03" vaporized=""/>
    <tripinfo id="13" depart="12.00" departLane="384994567#1_0" departPos="5.10" departSpeed="22.22" departDelay="0.95" arrival="59.00" arrivalLane="974590281_0" arrivalPos="64.66" arrivalSpeed="14.69" duration="47.00" routeLength="626.09" waitingTime="0.00" waitingCount="0" stopTime="0.00" timeLoss="7.11" rerouteNo="0" devices="tripinfo_13" vType="DEFAULT_VEHTYPE" speedFactor="1.11" vaporized=""/>
    <tripinfo id="57" depart="49.00" departLane="542000903#4_0" departPos="5.10" departSpeed="8.88" departDelay="0.55" arrival="61.00" arrivalLane="-993713961#1_0" arrivalPos="73.80" arrivalSpeed="11.06" duration="12.00" routeLength="95.86" waitingTime="0.00" waitingCount="0" stopTime="0.00" timeLoss="2.04" rerouteNo="0" devices="tripinfo_57" vType="DEFAULT_VEHTYPE" speedFactor="0.80" vaporized=""/>
    <tripinfo id="1" depart="1.00" departLane="143173610#0_2" departPos="5.10" departSpeed="11.11" departDelay="0.15" arrival="70.00" arrivalLane="1098103533_0" arrivalPos="80.62" arrivalSpeed="14.78" duration="69.00" routeLength="611.19" waitingTime="7.00" waitingCount="1" stopTime="0.00" timeLoss="17.85" rerouteNo="0" devices="tripinfo_1" vType="DEFAULT_VEHTYPE" speedFactor="1.07" vaporized=""/>
    <tripinfo id="55" depart="47.00" departLane="144165458#2_0" departPos="5.10" departSpeed="15.65" departDelay="0.25" arrival="81.00" arrivalLane="-40566492_0" arrivalPos="154.32" arrivalSpeed="12.05" duration="34.00" routeLength="362.34" waitingTime="0.00" waitingCount="0" stopTime="0.00" timeLoss="4.83" rerouteNo="0" devices="tripinfo_55" vType="DEFAULT_VEHTYPE" speedFactor="0.94" vaporized=""/>
    <tripinfo id="56" depart="48.00" departLane="651807443#0_0" departPos="5.10" departSpeed="13.39" departDelay="0.40" arrival="84.00" arrivalLane="974590281_0" arrivalPos="64.66" arrivalSpeed="13.57" duration="36.00" routeLength="377.43" waitingTime="0.00" waitingCount="0" stopTime="0.00" timeLoss="6.46" rerouteNo="0" devices="tripinfo_56" vType="DEFAULT_VEHTYPE" speedFactor="1.07" vaporized=""/>
    <tripinfo id="32" depart="28.00" departLane="143173609#0_0" departPos="5.10" departSpeed="11.11" departDelay="0.80" arrival="85.00" arrivalLane="127327263_0" arrivalPos="149.76" arrivalSpeed="10.14" duration="57.00" routeLength="688.17" waitingTime="0.00" waitingCount="0" stopTime="0.00" timeLoss="10.11" rerouteNo="0" devices="tripinfo_32" vType="DEFAULT_VEHTYPE" speedFactor="1.30" vaporized=""/>
    <tripinfo id="17" depart="15.00" departLane="127327262#0_0" departPos="5.10" departSpeed="5.56" departDelay="0.55" arrival="90.00" arrivalLane="143173598#0_0" arrivalPos="488.33" arrivalSpeed="14.36" duration="75.00" routeLength="913.42" waitingTime="0.00" waitingCount="0" stopTime="0.00" timeLoss="7.85" rerouteNo="0" devices="tripinfo_17" vType="DEFAULT_VEHTYPE" speedFactor="1.04" vaporized=""/>
    <tripinfo id="54" depart="46.00" departLane="651807443#0_0" departPos="5.10" departSpeed="13.56" departDelay="0.10" arrival="92.00" arrivalLane="607763868#0_0" arrivalPos="103.61" arrivalSpeed="16.16" duration="46.00" routeLength="550.40" waitingTime="0.00" waitingCount="0" stopTime="0.00" timeLoss="6.95" rerouteNo="0" devices="tripinfo_54" vType="DEFAULT_VEHTYPE" speedFactor="1.01" vaporized=""/>
    <tripinfo id="31" depart="27.00" departLane="407148734#0_0" departPos="5.10" departSpeed="7.73" departDelay="0.65" arrival="94.00" arrivalLane="143173621_0" arrivalPos="174.03" arrivalSpeed="20.50" duration="67.00" routeLength="671.02" waitingTime="13.00" waitingCount="1" stopTime="0.00" timeLoss="28.08" rerouteNo="0" devices="tripinfo_31" vType="DEFAULT_VEHTYPE" speedFactor="0.96" vaporized=""/>
    <tripinfo id="103" depart="88.00" departLane="993713963#0_0" departPos="5.10" departSpeed="6.96" departDelay="0.45" arrival="94.00" arrivalLane="993713963#0_1" arrivalPos="40.04" arrivalSpeed="5.59" duration="6.00" routeLength="34.94" waitingTime="0.00" waitingCount="0" stopTime="0.00" timeLoss="2.66" rerouteNo="0" devices="tripinfo_103" vType="DEFAULT_VEHTYPE" speedFactor="0.94" vaporized=""/>
    <tripinfo id="29" depart="25.00" departLane="-974590281_0" departPos="5.10" departSpeed="13.89" departDelay="0.35" arrival="98.00" arrivalLane="974590281_0" arrivalPos="64.66" arrivalSpeed="14.23" duration="73.00" routeLength="625.79" waitingTime="7.00" waitingCount="1" stopTime="0.00" timeLoss="26.23" rerouteNo="0" devices="tripinfo_29" vType="DEFAULT_VEHTYPE" speedFactor="1.03" vaporized=""/>
    <tripinfo id="36" depart="36.00" departLane="-127327263_0" departPos="5.10" departSpeed="8.02" departDelay="5.40" arrival="98.00" arrivalLane="384994569#3_1" arrivalPos="0.20" arrivalSpeed="12.26" duration="62.00" routeLength="587.50" waitingTime="1.00" waitingCount="1" stopTime="0.00" timeLoss="16.56" rerouteNo="0" devices="tripinfo_36" vType="DEFAULT_VEHTYPE" speedFactor="0.96" vaporized=""/>
    <tripinfo id="78" depart="67.00" departLane="143173604#0_0" departPos="5.10" departSpeed="13.91" departDelay="0.70" arrival="101.00" arrivalLane="651807443#0_1" arrivalPos="57.03" arrivalSpeed="12.70" duration="34.00" routeLength="384.73" waitingTime="0.00" waitingCount="0" stopTime="0.00" timeLoss="5.58" rerouteNo="0" devices="tripinfo_78" vType="DEFAULT_VEHTYPE" speedFactor="1.00" vaporized=""/>
    <tripinfo id="20" depart="17.00" departLane="407148734#0_0" departPos="5.10" departSpeed="0.03" departDelay="0.00" arrival="106.00" arrivalLane="143173604#4_1" arrivalPos="109.04" arrivalSpeed="15.24" duration="89.00" routeLength="930.97" waitingTime="14.00" waitingCount="2" stopTime="0.00" timeLoss="34.25" rerouteNo="0" devices="tripinfo_20" vType="DEFAULT_VEHTYPE" speedFactor="1.14" vaporized=""/>
    <tripinfo id="94" depart="80.00" departLane="40566492_0" departPos="5.10" departSpeed="10.89" departDelay="0.10" arrival="108.00" arrivalLane="40566448#1_0" arrivalPos="74.78" arrivalSpeed="8.25" duration="28.00" routeLength="233.26" waitingTime="0.00" waitingCount="0" stopTime="0.00" timeLoss="3.19" rerouteNo="0" devices="tripinfo_94" vType="DEFAULT_VEHTYPE" speedFactor="0.78" vaporized=""/>
    <tripinfo id="19" depart="17.00" departLane="-127327262#0_0" departPos="5.10" departSpeed="4.91" departDelay="0.85" arrival="109.00" arrivalLane="143173598#0_0" arrivalPos="488.33" arrivalSpeed="11.79" duration="92.00" routeLength="877.81" waitingTime="8.00" waitingCount="1" stopTime="0.00" timeLoss="21.13" rerouteNo="0" devices="tripinfo_19" vType="DEFAULT_VEHTYPE" speedFactor="0.88" vaporized=""/>
    <tripinfo id="27" depart="23.00" departLane="127327262#0_0" departPos="5.10" departSpeed="4.80" departDelay="0.05" arrival="109.00" arrivalLane="-394515875_0" arrivalPos="74.75" arrivalSpeed="10.73" duration="86.00" routeLength="646.19" waitingTime="8.00" waitingCount="1" stopTime="0.00" timeLoss="22.98" rerouteNo="0" devices="tripinfo_27" vType="DEFAULT_VEHTYPE" speedFactor="0.86" vaporized=""/>
    <tripinfo id="105" depart="90.00" departLane="143173609#0_2" departPos="5.10" departSpeed="11.11" departDelay="0.75" arrival="110.00" arrivalLane="974590281_0" arrivalPos="64.66" arrivalSpeed="14.71" duration="20.00" routeLength="220.59" waitingTime="0.00" waitingCount="0" stopTime="0.00" timeLoss="2.28" rerouteNo="0" devices="tripinfo_105" vType="DEFAULT_VEHTYPE" speedFactor="1.08" vaporized=""/>
    <tripinfo id="45" depart="40.00" departLane="650637874#1_0" departPos="5.10" departSpeed="17.89" departDelay="1.75" arrival="111.00" arrivalLane="143173598#0_0" arrivalPos="488.33" arrivalSpeed="13.83" duration="71.00" routeLength="1025.90" waitingTime="0.00" waitingCount="0" stopTime="0.00" timeLoss="9.40" rerouteNo="0" devices="tripinfo_45" vType="DEFAULT_VEHTYPE" speedFactor="1.07" vaporized=""/>
    <tripinfo id="51" depart="44.00" departLane="542000903#6_0" departPos="5.10" departSpeed="7.51" departDelay="0.65" arrival="117.00" arrivalLane="145341879#2_0" arrivalPos="142.21" arrivalSpeed="16.88" duration="73.00" routeLength="656.77" waitingTime="13.00" waitingCount="2" stopTime="0.00" timeLoss="25.97" rerouteNo="0" devices="tripinfo_51" vType="DEFAULT_VEHTYPE" speedFactor="1.08" vaporized=""/>
    <tripinfo id="102" depart="87.00" departLane="144165458#2_0" departPos="5.10" departSpeed="16.67" departDelay="0.30" arrival="119.00" arrivalLane="40566493_0" arrivalPos="150.34" arrivalSpeed="13.26" duration="32.00" routeLength="368.17" waitingTime="0.00" waitingCount="0" stopTime="0.00" timeLoss="4.38" rerouteNo="0" devices="tripinfo_102" vType="DEFAULT_VEHTYPE" speedFactor="1.03" vaporized=""/>
    <tripinfo id="62" depart="53.00" departLane="993713962_0" departPos="5.10" departSpeed="11.09" departDelay="0.30" arrival="120.00" arrivalLane="394515874#0_0" arrivalPos="147.28" arrivalSpeed="13.20" duration="67.00" routeLength="636.98" waitingTime="7.00" waitingCount="1" stopTime="0.00" timeLoss="18.56" rerouteNo="0" devices="tripinfo_62" vType="DEFAULT_VEHTYPE" speedFactor="1.00" vaporized=""/>
    <tripinfo id="30" depart="26.00" departLane="650637874#1_0" departPos="5.10" departSpeed="16.67" departDelay="0.50" arrival="121.00" arrivalLane="143173600#0_0" arrivalPos="291.79" arrivalSpeed="13.28" duration="95.00" routeLength="1191.28" waitingTime="5.00" waitingCount="1" stopTime="0.00" timeLoss="18.26" rerouteNo="0" devices="tripinfo_30" vType="DEFAULT_VEHTYPE" speedFactor="1.03" vaporized=""/>
    <tripinfo id="2" depart="2.00" departLane="664871813#0_2" departPos="5.10" departSpeed="13.89" departDelay="0.30" arrival="123.00" arrivalLane="-993713961#1_0" arrivalPos="73.80" arrivalSpeed="14.06" duration="121.00" routeLength="1277.36" waitingTime="11.00" waitingCount="1" stopTime="0.00" timeLoss="24.73" rerouteNo="0" devices="tripinfo_2" vType="DEFAULT_VEHTYPE" speedFactor="1.03" vaporized=""/>
    <tripinfo id="48" depart="41.00" departLane="144165458#2_2" departPos="5.10" departSpeed="16.67" departDelay="0.20" arrival="123.00" arrivalLane="384994573#0_2" arrivalPos="185.88" arrivalSpeed="24.97" duration="82.00" routeLength="931.32" waitingTime="1.00" waitingCount="1" stopTime="0.00" timeLoss="26.36" rerouteNo="0" devices="tripinfo_48" vType="DEFAULT_VEHTYPE" speedFactor="1.13" vaporized=""/>
    <tripinfo id="6" depart="6.00" departLane="407148734#0_1" departPos="5.10" departSpeed="11.11" departDelay="0.90" arrival="124.00" arrivalLane="145341879#2_0" arrivalPos="142.21" arrivalSpeed="21.17" duration="118.00" routeLength="979.27" waitingTime="27.00" waitingCount="3" stopTime="0.00" timeLoss="55.39" rerouteNo="0" devices="tripinfo_6" vType="DEFAULT_VEHTYPE" speedFactor="1.28" vaporized=""/>
    <tripinfo id="15" depart="13.00" departLane="542000905#0_2" departPos="5.10" departSpeed="12.67" departDelay="0.25" arrival="128.00" arrivalLane="384994567#2_1" arrivalPos="181.58" arrivalSpeed="11.04" duration="115.00" routeLength="1276.85" waitingTime="0.00" waitingCount="0" stopTime="0.00" timeLoss="19.61" rerouteNo="0" devices="tripinfo_15" vType="DEFAULT_VEHTYPE" speedFactor="0.93" vaporized=""/>
    <tripinfo id="42" depart="36.00" departLane="143173609#0_0" departPos="5.10" departSpeed="10.87" departDelay="0.30" arrival="130.00" arrivalLane="384994573#2_1" arrivalPos="107.54" arrivalSpeed="20.80" duration="94.00" routeLength="1123.47" waitingTime="6.00" waitingCount="1" stopTime="0.00" timeLoss="24.40" rerouteNo="0" devices="tripinfo_42" vType="DEFAULT_VEHTYPE" speedFactor="0.98" vaporized=""/>
    <tripinfo id="44" depart="38.00" departLane="164018894#1_0" departPos="5.10" departSpeed="10.98" departDelay="0.60" arrival="133.00" arrivalLane="974590281_0" arrivalPos="64.66" arrivalSpeed="13.13" duration="95.00" routeLength="794.69" waitingTime="14.00" waitingCount="1" stopTime="0.00" timeLoss="28.27" rerouteNo="0" devices="tripinfo_44" vType="DEFAULT_VEHTYPE" speedFactor="0.99" vaporized=""/>
    <tripinfo id="3" depart="3.00" departLane="145341885#0_2" departPos="5.10" departSpeed="22.22" departDelay="0.45" arrival="134.00" arrivalLane="-394515875_0" arrivalPos="74.75" arrivalSpeed="15.49" duration="131.00" routeLength="1578.30" waitingTime="15.00" waitingCount="2" stopTime="0.00" timeLoss="44.02" rerouteNo="0" devices="tripinfo_3" vType="DEFAULT_VEHTYPE" speedFactor="1.16" vaporized=""/>
    <tripinfo id="46" depart="40.00" departLane="265801394#0_0" departPos="5.10" departSpeed="22.22" departDelay="0.90" arrival="134.00" arrivalLane="1083921692_0" arrivalPos="74.91" arrivalSpeed="14.90" duration="94.00" routeLength="1189.81" waitingTime="2.00" waitingCount="1" stopTime="0.00" timeLoss="27.70" rerouteNo="0" devices="tripinfo_46" vType="DEFAULT_VEHTYPE" speedFactor="1.15" vaporized=""/>
    <tripinfo id="5" depart="5.00" departLane="-1083921692_0" departPos="5.10" departSpeed="12.29" departDelay="0.75" arrival="135.00" arrivalLane="1098103533_0" arrivalPos="80.62" arrivalSpeed="11.01" duration="130.00" routeLength="1168.53" waitingTime="0.00" waitingCount="0" stopTime="0.00" timeLoss="20.62" rerouteNo="0" devices="tripinfo_5" vType="DEFAULT_VEHTYPE" speedFactor="0.89" vaporized=""/>
    <tripinfo id="28" depart="24.00" departLane="144165458#2_2" departPos="5.10" departSpeed="16.67" departDelay="0.20" arrival="136.00" arrivalLane="143173598#0_0" arrivalPos="488.33" arrivalSpeed="14.17" duration="112.00" routeLength="1366.77" waitingTime="0.00" waitingCount="0" stopTime="0.00" timeLoss="18.28" rerouteNo="0" devices="tripinfo_28" vType="DEFAULT_VEHTYPE" speedFactor="1.08" vaporized=""/>
    <tripinfo id="84" depart="72.00" departLane="145341872_0" departPos="5.10" departSpeed="0.00" departDelay="0.60" arrival="136.00" arrivalLane="992786137_0" arrivalPos="308.30" arrivalSpeed="8.55" duration="64.00" routeLength="624.92" waitingTime="0.00" waitingCount="0" stopTime="0.00" timeLoss="7.55" rerouteNo="0" devices="tripinfo_84" vType="DEFAULT_VEHTYPE" speedFactor="0.85" vaporized=""/>
    <tripinfo id="43" depart="39.00" departLane="-127327263_0" departPos="5.10" departSpeed="7.91" departDelay="2.45" arrival="141.00" arrivalLane="143173621_2" arrivalPos="174.03" arrivalSpeed="25.12" duration="102.00" routeLength="1108.18" waitingTime="3.00" waitingCount="1" stopTime="0.00" timeLoss="35.20" rerouteNo="0" devices="tripinfo_43" vType="DEFAULT_VEHTYPE" speedFactor="1.17" vaporized=""/>
    <tripinfo id="37" depart="32.00" departLane="542000905#0_2" departPos="5.10" departSpeed="13.05" departDelay="0.55" arrival="145.00" arrivalLane="143173621_2" arrivalPos="174.03" arrivalSpeed="23.72" duration="113.00" routeLength="1332.99" waitingTime="16.00" waitingCount="1" stopTime="0.00" timeLoss="29.45" rerouteNo="0" devices="tripinfo_37" vType="DEFAULT_VEHTYPE" speedFactor="1.10" vaporized=""/>
    <tripinfo id="10" depart="9.00" departLane="993713961#0_0" departPos="5.10" departSpeed="12.05" departDelay="0.50" arrival="147.00" arrivalLane="143173600#0_0" arrivalPos="291.79" arrivalSpeed="11.69" duration="138.00" routeLength="1013.16" waitingTime="35.00" waitingCount="2" stopTime="0.00" timeLoss="55.62" rerouteNo="0" devices="tripinfo_10" vType="DEFAULT_VEHTYPE" speedFactor="0.87" vaporized=""/>
    <tripinfo id="39" depart="34.00" departLane="993713963#0_1" departPos="5.10" departSpeed="0.00" departDelay="0.85" arrival="147.00" arrivalLane="145341879#2_0" arrivalPos="142.21" arrivalSpeed="16.10" duration="113.00" routeLength="1069.10" waitingTime="9.00" waitingCount="1" stopTime="0.00" timeLoss="29.11" rerouteNo="0" devices="tripinfo_39" vType="DEFAULT_VEHTYPE" speedFactor="1.04" vaporized=""/>
    <tripinfo id="67" depart="57.00" departLane="-1098103533_0" departPos="5.10" departSpeed="13.80" departDelay="0.05" arrival="148.00" arrivalLane="384994569#4_0" arrivalPos="142.00" arrivalSpeed="12.66" duration="91.00" routeLength="837.91" waitingTime="0.00" waitingCount="0" stopTime="0.00" timeLoss="17.40" rerouteNo="0" devices="tripinfo_67" vType="DEFAULT_VEHTYPE" speedFactor="0.99" vaporized=""/>
    <tripinfo id="41" depart="35.00" departLane="407148734#1_1" departPos="5.10" departSpeed="10.45" departDelay="0.15" arrival="149.00" arrivalLane="145341879#2_0" arrivalPos="142.21" arrivalSpeed="14.89" duration="114.00" routeLength="817.76" waitingTime="24.00" waitingCount="3" stopTime="0.00" timeLoss="44.25" rerouteNo="0" devices="tripinfo_41" vType="DEFAULT_VEHTYPE" speedFactor="0.94" vaporized=""/>
    <tripinfo id="80" depart="68.00" departLane="993713963#0_0" departPos="5.10" departSpeed="0.00" departDelay="0.00" arrival="149.00" arrivalLane="607763868#1_0" arrivalPos="35.33" arrivalSpeed="18.00" duration="81.00" routeLength="977.10" waitingTime="0.00" waitingCount="0" stopTime="0.00" timeLoss="18.52" rerouteNo="0" devices="tripinfo_80" vType="DEFAULT_VEHTYPE" speedFactor="1.14" vaporized=""/>
    <tripinfo id="35" depart="30.00" departLane="993713963#0_0" departPos="5.10" departSpeed="10.27" departDelay="0.25" arrival="152.00" arrivalLane="145341879#2_0" arrivalPos="142.21" arrivalSpeed="15.19" duration="122.00" routeLength="1069.10" waitingTime="6.00" waitingCount="2" stopTime="0.00" timeLoss="26.99" rerouteNo="0" devices="tripinfo_35" vType="DEFAULT_VEHTYPE" speedFactor="0.92" vaporized=""/>
    <tripinfo id="24" depart="21.00" departLane="-40566493_0" departPos="5.10" departSpeed="13.89" departDelay="0.60" arrival="154.00" arrivalLane="143173609#4_0" arrivalPos="148.55" arrivalSpeed="11.21" duration="133.00" routeLength="1272.16" waitingTime="8.00" waitingCount="1" stopTime="0.00" timeLoss="35.30" rerouteNo="0" devices="tripinfo_24" vType="DEFAULT_VEHTYPE" speedFactor="1.04" vaporized=""/>
    <tripinfo id="50" depart="43.00" departLane="542000903#0_0" departPos="5.10" departSpeed="9.81" departDelay="0.50" arrival="154.00" arrivalLane="145341879#2_0" arrivalPos="142.21" arrivalSpeed="13.79" duration="111.00" routeLength="980.31" waitingTime="3.00" waitingCount="2" stopTime="0.00" timeLoss="20.38" rerouteNo="0" devices="tripinfo_50" vType="DEFAULT_VEHTYPE" speedFactor="0.88" vaporized=""/>
    <tripinfo id="90" depart="77.00" departLane="-1098103533_0" departPos="5.10" departSpeed="13.89" departDelay="0.50" arrival="155.00" arrivalLane="164020090#0_1" arrivalPos="309.80" arrivalSpeed="11.03" duration="78.00" routeLength="686.88" waitingTime="7.00" waitingCount="1" stopTime="0.00" timeLoss="20.52" rerouteNo="0" devices="tripinfo_90" vType="DEFAULT_VEHTYPE" speedFactor="1.09" vaporized=""/>
    <tripinfo id="26" depart="23.00" departLane="607763868#1_0" departPos="5.10" departSpeed="16.67" departDelay="0.90" arrival="157.00" arrivalLane="407148740#0_1" arrivalPos="140.43" arrivalSpeed="7.65" duration="134.00" routeLength="1201.56" waitingTime="6.00" waitingCount="3" stopTime="0.00" timeLoss="54.36" rerouteNo="0" devices="tripinfo_26" vType="DEFAULT_VEHTYPE" speedFactor="1.09" vaporized=""/>
    <tripinfo id="7" depart="6.00" departLane="-974590281_0" departPos="5.10" departSpeed="11.65" departDelay="0.05" arrival="160.00" arrivalLane="207073941#0_0" arrivalPos="243.61" arrivalSpeed="12.11" duration="154.00" routeLength="1440.51" waitingTime="33.00" waitingCount="1" stopTime="0.00" timeLoss="51.33" rerouteNo="0" devices="tripinfo_7" vType="DEFAULT_VEHTYPE" speedFactor="1.11" vaporized=""/>
    <tripinfo id="49" depart="42.00" departLane="40566492_0" departPos="5.10" departSpeed="13.89" departDelay="0.35" arrival="163.00" arrivalLane="1083921692_0" arrivalPos="74.91" arrivalSpeed="13.42" duration="121.00" routeLength="1118.02" waitingTime="15.00" waitingCount="2" stopTime="0.00" timeLoss="45.16" rerouteNo="0" devices="tripinfo_49" vType="DEFAULT_VEHTYPE" speedFactor="1.03" vaporized=""/>
    <tripinfo id="75" depart="64.00" departLane="145341885#0_0" departPos="5.10" departSpeed="20.36" departDelay="0.25" arrival="167.00" arrivalLane="143173600#0_0" arrivalPos="291.79" arrivalSpeed="11.72" duration="103.00" routeLength="960.26" waitingTime="28.00" waitingCount="2" stopTime="0.00" timeLoss="45.45" rerouteNo="0" devices="tripinfo_75" vType="DEFAULT_VEHTYPE" speedFactor="0.92" vaporized=""/>
    <tripinfo id="96" depart="82.00" departLane="664871813#0_0" departPos="5.10" departSpeed="13.89" departDelay="0.40" arrival="168.00" arrivalLane="127327262#1_0" arrivalPos="105.38" arrivalSpeed="4.48" duration="86.00" routeLength="906.79" waitingTime="0.00" waitingCount="0" stopTime="0.00" timeLoss="9.25" rerouteNo="0" devices="tripinfo_96" vType="DEFAULT_VEHTYPE" speedFactor="1.03" vaporized=""/>
    <tripinfo id="12" depart="11.00" departLane="607763868#2_1" departPos="0.20" departSpeed="16.67" departDelay="0.80" arrival="170.00" arrivalLane="32866078_0" arrivalPos="309.55" arrivalSpeed="10.61" duration="159.00" routeLength="1363.74" waitingTime="19.00" waitingCount="2" stopTime="0.00" timeLoss="42.37" rerouteNo="0" devices="tripinfo_12" vType="DEFAULT_VEHTYPE" speedFactor="1.04" vaporized=""/>
    <tripinfo id="21" depart="18.00" departLane="145341872_0" departPos="5.10" departSpeed="12.36" departDelay="0.15" arrival="171.00" arrivalLane="1098103533_0" arrivalPos="80.62" arrivalSpeed="11.91" duration="153.00" routeLength="1412.79" waitingTime="0.00" waitingCount="0" stopTime="0.00" timeLoss="19.97" rerouteNo="0" devices="tripinfo_21" vType="DEFAULT_VEHTYPE" speedFactor="0.89" vaporized=""/>
    <tripinfo id="73" depart="63.00" departLane="-127327261_0" departPos="5.10" departSpeed="13.52" departDelay="0.95" arrival="171.00" arrivalLane="143173621_2" arrivalPos="174.03" arrivalSpeed="21.26" duration="108.00" routeLength="915.19" waitingTime="20.00" waitingCount="2" stopTime="0.00" timeLoss="41.78" rerouteNo="0" devices="tripinfo_73" vType="DEFAULT_VEHTYPE" speedFactor="0.97" vaporized=""/>
    <tripinfo id="97" depart="83.00" departLane="40566492_0" departPos="5.10" departSpeed="9.70" departDelay="0.55" arrival="171.00" arrivalLane="384994567#2_2" arrivalPos="181.58" arrivalSpeed="11.38" duration="88.00" routeLength="806.73" waitingTime="0.00" waitingCount="0" stopTime="0.00" timeLoss="31.55" rerouteNo="0" devices="tripinfo_97" vType="DEFAULT_VEHTYPE" speedFactor="1.09" vaporized=""/>
    <tripinfo id="110" depart="94.00" departLane="542000905#0_2" departPos="5.10" departSpeed="13.80" departDelay="0.50" arrival="173.00" arrivalLane="143173598#0_0" arrivalPos="488.33" arrivalSpeed="13.19" duration="79.00" routeLength="980.66" waitingTime="0.00" waitingCount="0" stopTime="0.00" timeLoss="5.71" rerouteNo="0" devices="tripinfo_110" vType="DEFAULT_VEHTYPE" speedFactor="0.99" vaporized=""/>
    <tripinfo id="23" depart="20.00" departLane="407148734#0_0" departPos="5.10" departSpeed="2.95" departDelay="0.45" arrival="174.00" arrivalLane="384994567#0_0" arrivalPos="58.64" arrivalSpeed="14.89" duration="154.00" routeLength="1488.57" waitingTime="18.00" waitingCount="2" stopTime="0.00" timeLoss="55.90" rerouteNo="0" devices="tripinfo_23" vType="DEFAULT_VEHTYPE" speedFactor="1.04" vaporized=""/>
    <tripinfo id="40" depart="34.00" departLane="993713961#0_0" departPos="5.10" departSpeed="13.59" departDelay="0.00" arrival="174.00" arrivalLane="607763870#1_0" arrivalPos="314.36" arrivalSpeed="21.05" duration="140.00" routeLength="853.91" waitingTime="45.00" waitingCount="4" stopTime="0.00" timeLoss="77.08" rerouteNo="0" devices="tripinfo_40" vType="DEFAULT_VEHTYPE" speedFactor="0.98" vaporized=""/>
    <tripinfo id="69" depart="59.00" departLane="-974590281_0" departPos="5.10" departSpeed="13.37" departDelay="0.35" arrival="175.00" arrivalLane="-993713961#1_0" arrivalPos="73.80" arrivalSpeed="12.66" duration="116.00" routeLength="1339.72" waitingTime="0.00" waitingCount="0" stopTime="0.00" timeLoss="15.77" rerouteNo="0" devices="tripinfo_69" vType="DEFAULT_VEHTYPE" speedFactor="0.96" vaporized=""/>
    <tripinfo id="59" depart="51.00" departLane="143173609#0_0" departPos="5.10" departSpeed="10.84" departDelay="0.85" arrival="176.00" arrivalLane="607763870#1_1" arrivalPos="314.36" arrivalSpeed="21.24" duration="125.00" routeLength="1482.83" waitingTime="13.00" waitingCount="1" stopTime="0.00" timeLoss="37.92" rerouteNo="0" devices="tripinfo_59" vType="DEFAULT_VEHTYPE" speedFactor="0.98" vaporized=""/>
    <tripinfo id="98" depart="84.00" departLane="145341885#0_2" departPos="5.10" departSpeed="0.28" departDelay="0.70" arrival="176.00" arrivalLane="164020090#0_1" arrivalPos="309.80" arrivalSpeed="12.11" duration="92.00" routeLength="981.55" waitingTime="1.00" waitingCount="1" stopTime="0.00" timeLoss="27.44" rerouteNo="0" devices="tripinfo_98" vType="DEFAULT_VEHTYPE" speedFactor="1.15" vaporized=""/>
    <tripinfo id="18" depart="16.00" departLane="-1098103533_0" departPos="5.10" departSpeed="6.72" departDelay="0.70" arrival="177.00" arrivalLane="127327261_0" arrivalPos="177.57" arrivalSpeed="13.62" duration="161.00" routeLength="1409.34" waitingTime="39.00" waitingCount="3" stopTime="0.00" timeLoss="67.35" rerouteNo="0" devices="tripinfo_18" vType="DEFAULT_VEHTYPE" speedFactor="1.07" vaporized=""/>
    <tripinfo id="79" depart="68.00" departLane="145341885#3_2" departPos="5.10" departSpeed="22.22" departDelay="0.85" arrival="177.00" arrivalLane="607763870#1_1" arrivalPos="314.36" arrivalSpeed="22.93" duration="109.00" routeLength="1510.74" waitingTime="7.00" waitingCount="2" stopTime="0.00" timeLoss="31.64" rerouteNo="0" devices="tripinfo_79" vType="DEFAULT_VEHTYPE" speedFactor="1.09" vaporized=""/>
    <tripinfo id="61" depart="52.00" departLane="-974590281_0" departPos="5.10" departSpeed="13.89" departDelay="0.15" arrival="179.00" arrivalLane="143173600#0_0" arrivalPos="291.79" arrivalSpeed="14.21" duration="127.00" routeLength="1514.46" waitingTime="0.00" waitingCount="0" stopTime="0.00" timeLoss="26.80" rerouteNo="0" devices="tripinfo_61" vType="DEFAULT_VEHTYPE" speedFactor="1.04" vaporized=""/>
    <tripinfo id="8" depart="7.00" departLane="542000905#0_2" departPos="5.10" departSpeed="13.47" departDelay="0.20" arrival="181.00" arrivalLane="-127327262#0_0" arrivalPos="28.15" arrivalSpeed="4.19" duration="174.00" routeLength="1409.21" waitingTime="28.00" waitingCount="1" stopTime="0.00" timeLoss="45.73" rerouteNo="0" devices="tripinfo_8" vType="DEFAULT_VEHTYPE" speedFactor="0.97" vaporized=""/>
    <tripinfo id="63" depart="54.00" departLane="145341885#2_2" departPos="5.10" departSpeed="14.55" departDelay="0.45" arrival="181.00" arrivalLane="145341879#2_0" arrivalPos="142.21" arrivalSpeed="13.21" duration="127.00" routeLength="842.15" waitingTime="30.00" waitingCount="3" stopTime="0.00" timeLoss="47.85" rerouteNo="0" devices="tripinfo_63" vType="DEFAULT_VEHTYPE" speedFactor="0.85" vaporized=""/>
    <tripinfo id="68" depart="58.00" departLane="127327262#0_0" departPos="5.10" departSpeed="5.56" departDelay="0.20" arrival="181.00" arrivalLane="607763870#1_1" arrivalPos="314.36" arrivalSpeed="24.07" duration="123.00" routeLength="940.13" waitingTime="41.00" waitingCount="3" stopTime="0.00" timeLoss="74.57" rerouteNo="0" devices="tripinfo_68" vType="DEFAULT_VEHTYPE" speedFactor="1.11" vaporized=""/>
    <tripinfo id="74" depart="63.00" departLane="993713961#0_0" departPos="5.10" departSpeed="13.89" departDelay="0.10" arrival="181.00" arrivalLane="-993713961#1_0" arrivalPos="73.80" arrivalSpeed="14.06" duration="118.00" routeLength="1092.85" waitingTime="0.00" waitingCount="0" stopTime="0.00" timeLoss="22.70" rerouteNo="0" devices="tripinfo_74" vType="DEFAULT_VEHTYPE" speedFactor="1.01" vaporized=""/>
    <tripinfo id="180" depart="153.00" departLane="265801394#0_0" departPos="5.10" departSpeed="20.06" departDelay="0.00" arrival="182.00" arrivalLane="-40566492_0" arrivalPos="154.32" arrivalSpeed="11.83" duration="29.00" routeLength="398.33" waitingTime="0.00" waitingCount="0" stopTime="0.00" timeLoss="2.43" rerouteNo="0" devices="tripinfo_180" vType="DEFAULT_VEHTYPE" speedFactor="0.90" vaporized=""/>